# vtk DataFile Version 2.0    
Title Data                    
ASCII                         
DATASET UNSTRUCTURED_GRID   
POINTS 8 float
2 0 0
3 0 0
3 1 0
2 1 0
2 0 1
3 0 1
3 1 1
2 1 1
 
CELL_TYPES 8
1
1
1
1
1
1
1
1

POINT_DATA 8
SCALARS radius float
LOOKUP_TABLE default
0.5
0.5
0.5
0.5
0.5
0.5
0.5
0.5