# vtk DataFile Version 2.0
Title Data
ASCII
DATASET UNSTRUCTURED_GRID
POINTS           3 float
0 0 0
1 0 0
0 1 0
CELLS    1    4
3   0    1    2
CELL_TYPES    1
5
POINT_DATA    3
VECTORS DISP float
-1.0  -1.0   0.0
 0.0  -1.0   0.0
-1.0   1.0   0.0
SCALARS Temp float
LOOKUP_TABLE default
1.0
1.0
2.0
CELL_DATA 1
SCALARS sigma_x float
LOOKUP_TABLE default
5.0
