# vtk DataFile Version 2.0
Title Data
ASCII
DATASET UNSTRUCTURED_GRID
POINTS 512 float
0.068459 0.096445 0.099711
0.060495 0.095756 0.035729
0.030523 0.039539 0.032644
0.119264 0.047016 0.099973
0.008048 0.096547 0.058461
0.098499 0.088530 0.072172
0.100025 0.044368 0.118249
0.100050 0.049308 0.099966
0.041559 0.058747 0.011461
0.099478 0.059831 0.091823
0.103313 0.017070 0.054824
0.100185 0.098512 0.056814
0.063428 0.070459 0.144776
0.102260 0.062495 0.150234
0.060683 0.004814 0.158718
0.091796 0.095253 0.147132
0.100064 0.083096 0.200545
0.008403 0.081806 0.201774
0.100000 0.054435 0.200892
0.100198 0.022253 0.200410
0.072813 0.099744 0.281504
0.042257 0.090198 0.261822
0.073394 0.055108 0.268224
0.048139 0.033157 0.274218
0.100500 0.010373 0.365728
0.051808 0.098929 0.369085
0.100876 0.052735 0.352548
0.066744 0.058786 0.349604
0.098948 0.099130 0.472371
0.057595 0.006305 0.485128
0.095650 0.055025 0.465240
0.056624 0.060688 0.479689
0.093206 0.086984 0.013159
0.099529 0.063868 0.001885
0.109459 0.041265 0.038209
0.071960 0.022418 0.018789
0.022150 0.070107 0.061888
0.016491 0.068149 0.100486
0.012730 0.005962 0.117955
0.101904 0.093041 0.100041
0.054078 0.011231 0.111022
0.120937 0.006991 0.001809
0.099842 0.077396 0.099952
0.126327 0.078337 0.099971
0.058699 0.034988 0.049052
0.083935 0.012604 0.146851
0.031699 0.050711 0.060771
0.114097 0.064985 0.131962
0.047766 0.042658 0.174392
0.074489 0.045570 0.172771
0.030767 0.035122 0.149301
0.108354 0.018037 0.166177
0.081262 0.046478 0.235274
0.004769 0.041464 0.221117
0.056361 0.093846 0.219505
0.112732 0.099047 0.223539
0.099143 0.083040 0.276953
0.062688 0.077434 0.281126
0.106579 0.031968 0.275780
0.076762 0.034176 0.299838
0.094443 0.077672 0.363300
0.013392 0.082474 0.378730
0.100025 0.015429 0.397087
0.025513 0.013859 0.407276
0.099975 0.072898 0.025850
0.061150 0.079955 0.100981
0.034440 0.030855 0.100759
0.063883 0.027882 0.100997
0.098356 0.072760 0.121199
0.099717 0.089311 0.099837
0.099966 0.008353 0.093605
0.099999 0.024566 0.099999
0.041882 0.046178 0.120731
0.099939 0.064589 0.099845
0.036772 0.088586 0.083073
0.092543 0.089199 0.125991
0.052983 0.050739 0.135344
0.089031 0.049270 0.137523
0.007966 0.088434 0.146488
0.077557 0.083642 0.156095
0.071420 0.084094 0.202613
0.089297 0.080233 0.172803
0.099980 0.100000 0.199952
0.011657 0.020503 0.186892
0.108084 0.075165 0.247669
0.027930 0.074865 0.247251
0.092275 0.028410 0.254799
0.043037 0.014066 0.255030
0.099412 0.093007 0.324512
0.033854 0.087805 0.329774
0.099996 0.025898 0.320914
0.032759 0.039978 0.323803
0.100319 0.091623 0.417940
0.062357 0.094137 0.439317
0.098715 0.033116 0.435175
0.061942 0.046751 0.431866
0.088495 0.000724 0.038518
0.099990 0.099438 0.099805
0.100003 0.028422 0.127381
0.092762 0.044164 0.056822
0.056211 0.099506 0.064872
0.097788 0.009567 0.100035
0.062681 0.042468 0.088417
0.008827 0.039544 0.101939
0.000560 0.032886 0.072719
0.082701 0.028364 0.083314
0.021982 0.080802 0.044639
0.070162 0.075118 0.049071
0.052553 0.023755 0.132574
0.074839 0.040281 0.145580
0.118861 0.086366 0.136157
0.126062 0.094066 0.143364
0.061241 0.063053 0.189392
0.100014 0.056245 0.177861
0.057813 0.096280 0.178435
0.106450 0.099205 0.169138
0.056784 0.055299 0.242937
0.099750 0.065616 0.230936
0.076855 0.008816 0.240021
0.007036 0.097465 0.227349
0.099991 0.064694 0.308070
0.051385 0.063353 0.307195
0.099958 0.001657 0.300008
0.061443 0.098713 0.314829
0.088667 0.067182 0.424011
0.042906 0.076857 0.409440
0.084105 0.035036 0.364501
0.039251 0.040852 0.374365
0.056281 0.069641 0.041919
0.162823 0.070066 0.053610
0.060848 0.003015 0.084959
0.165864 0.006331 0.126267
0.078079 0.048973 0.100131
0.164316 0.058158 0.117352
0.127291 0.011063 0.098712
0.140990 0.097607 0.098443
0.093401 0.067353 0.056586
0.143761 0.069147 0.094137
0.099972 0.002729 0.100025
0.149278 0.004208 0.099695
0.099522 0.064599 0.137566
0.138100 0.075110 0.137972
0.017797 0.017158 0.139511
0.136852 0.022536 0.136599
0.099978 0.088876 0.183341
0.143188 0.089310 0.189662
0.100007 0.045142 0.192128
0.145845 0.049902 0.181819
0.100463 0.007451 0.258659
0.127998 0.098582 0.259457
0.001876 0.056632 0.256917
0.127034 0.053059 0.263182
0.030111 0.018583 0.348298
0.131817 0.015119 0.352951
0.038349 0.071398 0.349025
0.124768 0.057588 0.355407
0.017106 0.031736 0.484440
0.103260 0.029066 0.477619
0.017399 0.079866 0.485579
0.100564 0.079352 0.459334
0.099998 0.009354 0.127425
0.139230 0.008289 0.031238
0.122825 0.070105 0.044846
0.131619 0.060196 0.080723
0.020455 0.013593 0.072342
0.139252 0.006460 0.070696
0.019384 0.083930 0.119686
0.148328 0.080317 0.104094
0.106847 0.028870 0.022114
0.137551 0.021441 0.100057
0.022160 0.094756 0.099109
0.060391 0.088492 0.070662
0.003419 0.028170 0.026357
0.098451 0.026171 0.063493
0.003211 0.090104 0.011641
0.089895 0.091588 0.059439
0.032022 0.074905 0.165329
0.011763 0.052990 0.161949
0.104425 0.028909 0.149564
0.129136 0.035155 0.164765
0.031528 0.069567 0.207401
0.041557 0.050887 0.201712
0.055442 0.028412 0.213102
0.041016 0.006098 0.207873
0.019469 0.090119 0.289959
0.132288 0.078056 0.282163
0.024812 0.051031 0.283477
0.102202 0.049178 0.296348
0.060525 0.067531 0.389018
0.099260 0.087986 0.390061
0.070719 0.029937 0.404306
0.064519 0.006543 0.397607
0.074146 0.048689 0.025358
0.141254 0.047752 0.044635
0.111682 0.091166 0.042173
0.144964 0.083917 0.017966
0.056032 0.053297 0.072410
0.146636 0.047655 0.093029
0.130362 0.085089 0.072369
0.160136 0.089190 0.054345
0.099294 0.069410 0.076192
0.140924 0.067050 0.031788
0.099991 0.098259 0.116009
0.137619 0.099280 0.050219
0.048037 0.072248 0.135413
0.138119 0.048474 0.135136
0.062011 0.096053 0.133322
0.098493 0.096511 0.099682
0.041168 0.087341 0.175586
0.137256 0.093777 0.173041
0.077745 0.026658 0.200448
0.140340 0.028176 0.181284
0.086979 0.089932 0.244702
0.100055 0.093305 0.200135
0.117292 0.034141 0.234750
0.101300 0.036457 0.200618
0.077684 0.096672 0.353350
0.121794 0.093123 0.334174
0.067494 0.027405 0.331338
0.109408 0.043641 0.330270
0.021461 0.002665 0.447698
0.108000 0.009904 0.432550
0.046224 0.033837 0.448155
0.129295 0.047072 0.427254
0.127667 0.037573 0.099738
0.143212 0.042211 0.006802
0.058496 0.083399 0.003261
0.142726 0.087532 0.064048
0.047163 0.031898 0.082185
0.165439 0.034645 0.066243
0.044590 0.073614 0.099682
0.160119 0.092817 0.110889
0.058836 0.070709 0.090616
0.134564 0.041383 0.061754
0.043370 0.015426 0.043049
0.139433 0.090258 0.099859
0.099948 0.037110 0.100013
0.099405 0.053891 0.047586
0.051724 0.090618 0.131561
0.035857 0.097937 0.019589
0.115896 0.066829 0.166579
0.137987 0.073059 0.176564
0.056779 0.018028 0.175201
0.007061 0.005239 0.165825
0.100030 0.070088 0.201136
0.062528 0.075711 0.231085
0.100000 0.013339 0.199987
0.034563 0.031947 0.235984
0.081564 0.074912 0.322538
0.099991 0.073712 0.298794
0.028335 0.015157 0.299772
0.126551 0.009172 0.298605
0.018488 0.065988 0.440434
0.109052 0.070507 0.399935
0.006517 0.047472 0.398653
0.099986 0.049302 0.396145
0.199944 0.082248 0.100006
0.288510 0.099269 0.064687
0.210953 0.054799 0.099968
0.278391 0.055559 0.065458
0.207897 0.087629 0.100025
0.270258 0.090011 0.035638
0.211518 0.026075 0.096087
0.278425 0.035977 0.039247
0.188930 0.092168 0.088084
0.267631 0.006589 0.099452
0.199997 0.040949 0.099976
0.263803 0.054632 0.100365
0.200222 0.090657 0.133300
0.267096 0.099029 0.122977
0.192368 0.048586 0.136286
0.269611 0.052450 0.124251
0.181384 0.076626 0.166377
0.245419 0.090695 0.137753
0.176450 0.040124 0.163774
0.247349 0.026913 0.137452
0.161472 0.091796 0.230048
0.219793 0.086515 0.173052
0.136647 0.031657 0.231658
0.220722 0.039802 0.171199
0.180494 0.015516 0.346408
0.257199 0.014852 0.358735
0.168299 0.054511 0.351516
0.242163 0.061096 0.360914
0.149803 0.012367 0.461445
0.208121 0.014329 0.447980
0.144265 0.067184 0.461834
0.099995 0.058345 0.503396
0.177869 0.050390 0.042045
0.238521 0.045576 0.063789
0.150413 0.025840 0.035180
0.226333 0.093288 0.055175
0.174068 0.046246 0.080800
0.228699 0.041213 0.099456
0.178976 0.017889 0.061845
0.230462 0.002250 0.094789
0.174819 0.071034 0.010330
0.213991 0.070979 0.026730
0.157763 0.023829 0.089697
0.217465 0.022909 0.050831
0.165707 0.050534 0.100488
0.215994 0.052711 0.025452
0.181103 0.032026 0.118498
0.216578 0.003491 0.026730
0.146016 0.039774 0.137286
0.210489 0.063268 0.134523
0.138951 0.097325 0.141192
0.205560 0.008435 0.138347
0.145698 0.065789 0.198947
0.181845 0.056233 0.173719
0.144854 0.010213 0.193516
0.176979 0.089201 0.175360
0.165352 0.089536 0.289789
0.204949 0.080744 0.298018
0.148146 0.044013 0.287390
0.183895 0.048959 0.296670
0.138944 0.075711 0.376290
0.196543 0.079477 0.368852
0.131274 0.025529 0.389280
0.198527 0.050045 0.394801
0.205612 0.083577 0.057057
0.261973 0.072778 0.097710
0.199966 0.097686 0.100019
0.265109 0.027962 0.086055
0.175132 0.082596 0.078901
0.255480 0.073886 0.019637
0.188014 0.030139 0.004590
0.262627 0.016919 0.035951
0.181236 0.092932 0.022045
0.255067 0.088730 0.091105
0.209977 0.032441 0.061271
0.249855 0.036419 0.098001
0.174628 0.089592 0.132782
0.223892 0.090374 0.101309
0.186878 0.027974 0.133802
0.229879 0.030122 0.120011
0.158872 0.079990 0.144739
0.241213 0.069652 0.133389
0.173990 0.013977 0.162499
0.222128 0.025810 0.154438
0.134240 0.077978 0.234368
0.181828 0.083663 0.208725
0.156873 0.029595 0.206341
0.199998 0.022100 0.193226
0.155615 0.092355 0.357577
0.224602 0.094459 0.333874
0.147003 0.040338 0.324244
0.210612 0.045808 0.332750
0.144723 0.099700 0.417151
0.187511 0.005095 0.405598
0.169026 0.041559 0.430083
0.220471 0.040953 0.410542
0.194529 0.061126 0.047664
0.250522 0.057408 0.053792
0.182755 0.095603 0.050569
0.248890 0.006510 0.065176
0.190224 0.060376 0.098660
0.237770 0.068869 0.095371
0.181107 0.000718 0.082124
0.239292 0.097237 0.100022
0.188269 0.069515 0.082765
0.220205 0.069187 0.079112
0.179770 0.021781 0.033197
0.199960 0.015176 0.099964
0.186560 0.074255 0.129526
0.242417 0.080177 0.053438
0.180123 0.003326 0.100358
0.241034 0.028498 0.022253
0.153714 0.060159 0.147918
0.221172 0.062351 0.151516
0.150724 0.008067 0.146239
0.216215 0.096769 0.148058
0.140112 0.057263 0.219365
0.193308 0.049705 0.199992
0.139469 0.096313 0.218101
0.182250 0.006092 0.176470
0.140586 0.073815 0.319227
0.183993 0.078903 0.323791
0.157834 0.011395 0.312973
0.200017 0.014675 0.302031
0.160755 0.073056 0.402795
0.226119 0.083717 0.399632
0.159332 0.032635 0.383680
0.212375 0.017147 0.372818
0.377449 0.006157 0.099895
0.477303 0.099130 0.094474
0.360466 0.056115 0.100336
0.470718 0.058570 0.094754
0.378357 0.098373 0.047887
0.491890 0.007256 0.057739
0.355962 0.059501 0.064503
0.486182 0.060508 0.056857
0.355574 0.018364 0.025584
0.492964 0.031658 0.017825
0.357634 0.071068 0.034370
0.492680 0.079888 0.018454
0.362726 0.016927 0.130511
0.485436 0.029716 0.109241
0.361229 0.058595 0.124288
0.461906 0.079736 0.118322
0.355441 0.015329 0.179120
0.468171 0.009377 0.151219
0.361337 0.054835 0.165786
0.506962 0.064310 0.099992
0.367312 0.014959 0.253253
0.454812 0.014470 0.228072
0.368023 0.061852 0.241853
0.479926 0.059972 0.155170
0.229070 0.082648 0.215794
0.270290 0.005849 0.211536
0.205093 0.043685 0.219346
0.296241 0.045838 0.212891
0.223077 0.097967 0.273333
0.270704 0.098749 0.283856
0.226601 0.043911 0.284291
0.272573 0.052845 0.278723
0.285275 0.081656 0.089458
0.374323 0.076525 0.093086
0.297052 0.027221 0.100006
0.399995 0.028161 0.100008
0.290561 0.078673 0.056749
0.387013 0.082161 0.010763
0.301383 0.033924 0.065619
0.413481 0.012180 0.024247
0.298364 0.089759 0.011175
0.396857 0.063316 0.055409
0.293323 0.051811 0.016045
0.414775 0.027557 0.057441
0.299018 0.079888 0.120986
0.397671 0.084511 0.089424
0.299972 0.046884 0.100018
0.404781 0.005930 0.074867
0.296570 0.089806 0.164333
0.384664 0.076973 0.133862
0.296217 0.047870 0.143202
0.398512 0.029466 0.126645
0.299988 0.084504 0.203076
0.377071 0.080656 0.196989
0.303313 0.050942 0.182758
0.398521 0.049070 0.197020
0.175950 0.062786 0.225704
0.259423 0.052359 0.163439
0.176231 0.022804 0.222335
0.278413 0.015465 0.145295
0.165581 0.050451 0.253047
0.250427 0.046656 0.214884
0.149680 0.013600 0.262603
0.226242 0.099465 0.227309
0.336119 0.092711 0.096278
0.425198 0.092788 0.099725
0.334739 0.025947 0.097118
0.442016 0.032726 0.096039
0.337886 0.088748 0.030134
0.447412 0.092936 0.063236
0.331710 0.040750 0.027810
0.440307 0.046799 0.067426
0.360388 0.097450 0.073170
0.454936 0.003328 0.022255
0.337286 0.029633 0.064880
0.455039 0.035740 0.042725
0.342422 0.094511 0.119457
0.439415 0.011456 0.109140
0.331449 0.042472 0.109400
0.439858 0.046014 0.131895
0.366943 0.092706 0.153868
0.423141 0.002333 0.145941
0.332535 0.040469 0.147268
0.438815 0.043305 0.171372
0.341266 0.095039 0.220692
0.415751 0.006192 0.189455
0.343148 0.046280 0.208773
0.418819 0.039427 0.241791
0.199996 0.075899 0.200011
0.272000 0.079249 0.153815
0.235166 0.023967 0.196749
0.271365 0.028238 0.177676
0.165243 0.080364 0.264304
0.269407 0.080988 0.240454
0.189301 0.026692 0.263865
0.278668 0.025054 0.247166
0.319285 0.063944 0.097448
0.429566 0.065428 0.086820
0.301978 0.099473 0.099354
0.371050 0.033013 0.079385
0.315165 0.064405 0.046319
0.417834 0.078435 0.043575
0.323403 0.100000 0.058511
0.378937 0.039308 0.036646
0.332379 0.075769 0.074777
0.447240 0.067089 0.017782
0.307310 0.014723 0.022468
0.405901 0.047758 0.006985
0.300000 0.073122 0.099979
0.414314 0.072630 0.119715
0.304515 0.013291 0.123175
0.399980 0.050261 0.098555
0.327739 0.075472 0.139983
0.409034 0.073400 0.164174
0.322443 0.011615 0.154717
0.392796 0.032895 0.157858
0.333416 0.078421 0.180334
0.406692 0.083484 0.229283
0.310658 0.016411 0.197732
0.384797 0.019088 0.209712
0.229799 0.065030 0.184556
0.266809 0.074456 0.194035
0.200021 0.004095 0.200011
0.247379 0.099479 0.175753
0.201105 0.070566 0.252595
0.237227 0.063347 0.249142
0.188956 0.000737 0.241018
0.233553 0.023800 0.245142

CELL_TYPES 512
1
1
1
1
1
1
1
1
1
1
1
1
1
1
1
1
1
1
1
1
1
1
1
1
1
1
1
1
1
1
1
1
1
1
1
1
1
1
1
1
1
1
1
1
1
1
1
1
1
1
1
1
1
1
1
1
1
1
1
1
1
1
1
1
1
1
1
1
1
1
1
1
1
1
1
1
1
1
1
1
1
1
1
1
1
1
1
1
1
1
1
1
1
1
1
1
1
1
1
1
1
1
1
1
1
1
1
1
1
1
1
1
1
1
1
1
1
1
1
1
1
1
1
1
1
1
1
1
1
1
1
1
1
1
1
1
1
1
1
1
1
1
1
1
1
1
1
1
1
1
1
1
1
1
1
1
1
1
1
1
1
1
1
1
1
1
1
1
1
1
1
1
1
1
1
1
1
1
1
1
1
1
1
1
1
1
1
1
1
1
1
1
1
1
1
1
1
1
1
1
1
1
1
1
1
1
1
1
1
1
1
1
1
1
1
1
1
1
1
1
1
1
1
1
1
1
1
1
1
1
1
1
1
1
1
1
1
1
1
1
1
1
1
1
1
1
1
1
1
1
1
1
1
1
1
1
1
1
1
1
1
1
1
1
1
1
1
1
1
1
1
1
1
1
1
1
1
1
1
1
1
1
1
1
1
1
1
1
1
1
1
1
1
1
1
1
1
1
1
1
1
1
1
1
1
1
1
1
1
1
1
1
1
1
1
1
1
1
1
1
1
1
1
1
1
1
1
1
1
1
1
1
1
1
1
1
1
1
1
1
1
1
1
1
1
1
1
1
1
1
1
1
1
1
1
1
1
1
1
1
1
1
1
1
1
1
1
1
1
1
1
1
1
1
1
1
1
1
1
1
1
1
1
1
1
1
1
1
1
1
1
1
1
1
1
1
1
1
1
1
1
1
1
1
1
1
1
1
1
1
1
1
1
1
1
1
1
1
1
1
1
1
1
1
1
1
1
1
1
1
1
1
1
1
1
1
1
1
1
1
1
1
1
1
1
1
1
1
1
1
1
1
1
1
1
1
1
1
1
1
1
1
1
1
1
1
1
1
1
1
1
1
1
1
1
1
1
1
1
1
1
1
1
1
1
1
1
1
1
1
1
1
1
1
1
1
1
1
1
1
1
1
1
1
1
1
1
1
1
1
1
1

POINT_DATA 512
SCALARS radius float
LOOKUP_TABLE default
0.5
0.5
0.5
0.5
0.5
0.5
0.5
0.5
0.5
0.5
0.5
0.5
0.5
0.5
0.5
0.5
0.5
0.5
0.5
0.5
0.5
0.5
0.5
0.5
0.5
0.5
0.5
0.5
0.5
0.5
0.5
0.5
0.5
0.5
0.5
0.5
0.5
0.5
0.5
0.5
0.5
0.5
0.5
0.5
0.5
0.5
0.5
0.5
0.5
0.5
0.5
0.5
0.5
0.5
0.5
0.5
0.5
0.5
0.5
0.5
0.5
0.5
0.5
0.5
0.5
0.5
0.5
0.5
0.5
0.5
0.5
0.5
0.5
0.5
0.5
0.5
0.5
0.5
0.5
0.5
0.5
0.5
0.5
0.5
0.5
0.5
0.5
0.5
0.5
0.5
0.5
0.5
0.5
0.5
0.5
0.5
0.5
0.5
0.5
0.5
0.5
0.5
0.5
0.5
0.5
0.5
0.5
0.5
0.5
0.5
0.5
0.5
0.5
0.5
0.5
0.5
0.5
0.5
0.5
0.5
0.5
0.5
0.5
0.5
0.5
0.5
0.5
0.5
0.5
0.5
0.5
0.5
0.5
0.5
0.5
0.5
0.5
0.5
0.5
0.5
0.5
0.5
0.5
0.5
0.5
0.5
0.5
0.5
0.5
0.5
0.5
0.5
0.5
0.5
0.5
0.5
0.5
0.5
0.5
0.5
0.5
0.5
0.5
0.5
0.5
0.5
0.5
0.5
0.5
0.5
0.5
0.5
0.5
0.5
0.5
0.5
0.5
0.5
0.5
0.5
0.5
0.5
0.5
0.5
0.5
0.5
0.5
0.5
0.5
0.5
0.5
0.5
0.5
0.5
0.5
0.5
0.5
0.5
0.5
0.5
0.5
0.5
0.5
0.5
0.5
0.5
0.5
0.5
0.5
0.5
0.5
0.5
0.5
0.5
0.5
0.5
0.5
0.5
0.5
0.5
0.5
0.5
0.5
0.5
0.5
0.5
0.5
0.5
0.5
0.5
0.5
0.5
0.5
0.5
0.5
0.5
0.5
0.5
0.5
0.5
0.5
0.5
0.5
0.5
0.5
0.5
0.5
0.5
0.5
0.5
0.5
0.5
0.5
0.5
0.5
0.5
0.5
0.5
0.5
0.5
0.5
0.5
0.5
0.5
0.5
0.5
0.5
0.5
0.5
0.5
0.5
0.5
0.5
0.5
0.5
0.5
0.5
0.5
0.5
0.5
0.5
0.5
0.5
0.5
0.5
0.5
0.5
0.5
0.5
0.5
0.5
0.5
0.5
0.5
0.5
0.5
0.5
0.5
0.5
0.5
0.5
0.5
0.5
0.5
0.5
0.5
0.5
0.5
0.5
0.5
0.5
0.5
0.5
0.5
0.5
0.5
0.5
0.5
0.5
0.5
0.5
0.5
0.5
0.5
0.5
0.5
0.5
0.5
0.5
0.5
0.5
0.5
0.5
0.5
0.5
0.5
0.5
0.5
0.5
0.5
0.5
0.5
0.5
0.5
0.5
0.5
0.5
0.5
0.5
0.5
0.5
0.5
0.5
0.5
0.5
0.5
0.5
0.5
0.5
0.5
0.5
0.5
0.5
0.5
0.5
0.5
0.5
0.5
0.5
0.5
0.5
0.5
0.5
0.5
0.5
0.5
0.5
0.5
0.5
0.5
0.5
0.5
0.5
0.5
0.5
0.5
0.5
0.5
0.5
0.5
0.5
0.5
0.5
0.5
0.5
0.5
0.5
0.5
0.5
0.5
0.5
0.5
0.5
0.5
0.5
0.5
0.5
0.5
0.5
0.5
0.5
0.5
0.5
0.5
0.5
0.5
0.5
0.5
0.5
0.5
0.5
0.5
0.5
0.5
0.5
0.5
0.5
0.5
0.5
0.5
0.5
0.5
0.5
0.5
0.5
0.5
0.5
0.5
0.5
0.5
0.5
0.5
0.5
0.5
0.5
0.5
0.5
0.5
0.5
0.5
0.5
0.5
0.5
0.5
0.5
0.5
0.5
0.5
0.5
0.5
0.5
0.5
0.5
0.5
0.5
0.5
0.5
0.5
0.5
0.5
0.5
0.5
0.5
0.5
0.5
0.5
0.5
0.5
0.5
0.5
0.5
0.5
0.5
0.5
0.5
0.5
0.5
0.5
0.5
0.5
0.5
0.5
0.5
0.5
0.5
0.5
0.5
0.5
0.5
0.5
0.5
0.5
0.5
0.5
0.5
0.5
0.5
0.5
0.5
0.5
0.5
0.5
