# vtk DataFile Version 2.0
Title Data
ASCII
DATASET UNSTRUCTURED_GRID
POINTS 512 float
0.099908 0.098858 0.093863
0.026411 0.096126 0.087002
0.095753 0.037697 0.098081
0.028800 0.056306 0.080818
0.091634 0.096883 0.022766
0.070118 0.087532 0.053248
0.086063 0.053014 0.022770
0.045809 0.047295 0.050012
0.098341 0.055344 0.090446
0.061463 0.066329 0.057977
0.098346 0.004696 0.098239
0.067133 0.100000 0.026793
0.002390 0.071663 0.134320
0.053639 0.066828 0.132668
0.099996 0.099536 0.133932
0.065804 0.097142 0.130230
0.005568 0.078811 0.197422
0.066779 0.082781 0.199874
0.011380 0.040419 0.194753
0.059343 0.028186 0.190132
0.017349 0.092444 0.276174
0.080184 0.087863 0.273904
0.009978 0.043455 0.270808
0.082283 0.036617 0.274128
0.059080 0.096922 0.381280
0.096496 0.097064 0.386503
0.055885 0.049787 0.364503
0.098953 0.054280 0.374838
0.035122 0.098419 0.473230
0.093211 0.004710 0.481276
0.033749 0.057049 0.473410
0.094312 0.059748 0.480032
0.099804 0.074241 0.099443
0.049536 0.065753 0.092101
0.000843 0.012673 0.098312
0.037660 0.013381 0.092133
0.095549 0.074525 0.044331
0.086168 0.058620 0.061777
0.093095 0.004869 0.035944
0.051584 0.098268 0.053235
0.097491 0.009111 0.065922
0.045339 0.001134 0.084380
0.101944 0.078812 0.057649
0.030246 0.085479 0.084095
0.099948 0.010407 0.104786
0.033671 0.010465 0.121521
0.098536 0.047959 0.099999
0.033039 0.069881 0.118712
0.096270 0.047233 0.157118
0.034670 0.044032 0.152409
0.098684 0.026970 0.137249
0.038142 0.018381 0.149252
0.097889 0.041197 0.213434
0.056410 0.039659 0.216975
0.096242 0.092485 0.198469
0.046397 0.098408 0.208476
0.042414 0.076850 0.294758
0.098873 0.080000 0.299455
0.041007 0.029731 0.291663
0.099414 0.035867 0.304745
0.040741 0.066951 0.388585
0.072132 0.073124 0.399732
0.039223 0.008280 0.413474
0.076519 0.007909 0.422400
0.071827 0.069044 0.086916
0.009962 0.068776 0.076092
0.095979 0.034012 0.068001
0.001743 0.030114 0.085952
0.081108 0.068007 0.008137
0.031852 0.072373 0.032703
0.088121 0.028358 0.000402
0.039516 0.032386 0.037861
0.097921 0.044169 0.042647
0.056907 0.055129 0.012486
0.096015 0.093198 0.060999
0.059377 0.089787 0.016059
0.003866 0.048377 0.124666
0.063490 0.043862 0.127508
0.084508 0.091353 0.138444
0.033539 0.082508 0.135257
0.021258 0.081114 0.166522
0.055785 0.081586 0.166123
0.024919 0.006270 0.173766
0.068535 0.016509 0.173613
0.037035 0.070834 0.255494
0.081362 0.072066 0.244017
0.025447 0.020624 0.250460
0.080103 0.019529 0.245490
0.049818 0.090817 0.349014
0.083131 0.086650 0.354843
0.046994 0.028988 0.344977
0.084062 0.031177 0.341225
0.043452 0.091155 0.432378
0.099408 0.090645 0.440756
0.044490 0.033011 0.448375
0.097749 0.037947 0.440438
0.022278 0.088586 0.017250
0.051491 0.097610 0.098048
0.030967 0.021785 0.012714
0.065260 0.039827 0.099584
0.098937 0.098061 0.050722
0.062392 0.004705 0.087118
0.100280 0.040377 0.063824
0.075167 0.038338 0.057915
0.087807 0.033314 0.035888
0.052006 0.033350 0.004306
0.092572 0.082511 0.002695
0.043356 0.074457 0.099898
0.097932 0.033724 0.119368
0.043296 0.034705 0.130359
0.099964 0.086739 0.118026
0.051027 0.087902 0.126144
0.098145 0.057178 0.172416
0.066716 0.050909 0.169654
0.005204 0.093493 0.159249
0.051590 0.097358 0.159534
0.098121 0.056833 0.237441
0.051224 0.065204 0.223820
0.099621 0.002531 0.234124
0.064090 0.095313 0.228888
0.048891 0.061945 0.326786
0.090536 0.062812 0.329683
0.035550 0.004264 0.316832
0.096985 0.001010 0.331736
0.033776 0.066375 0.430029
0.084635 0.074893 0.425069
0.030329 0.030701 0.385250
0.085407 0.033533 0.390751
0.099843 0.059107 0.099961
0.136504 0.071257 0.099952
0.100002 0.099360 0.099815
0.136938 0.099139 0.099948
0.060372 0.053444 0.070825
0.134080 0.067173 0.049065
0.027588 0.001898 0.061559
0.130075 0.097827 0.060158
0.047981 0.069825 0.037239
0.131702 0.069136 0.070183
0.049024 0.013088 0.043746
0.138800 0.099462 0.084452
0.075281 0.069816 0.130725
0.128277 0.075990 0.126331
0.089305 0.099742 0.131897
0.126269 0.019651 0.126784
0.060374 0.089863 0.180468
0.122380 0.089520 0.174995
0.052270 0.046203 0.184953
0.124956 0.042867 0.171910
0.056360 0.098659 0.257653
0.113546 0.097806 0.254086
0.059473 0.049217 0.262122
0.117635 0.046222 0.260043
0.086083 0.011482 0.376129
0.135554 0.006103 0.373456
0.084280 0.061868 0.368037
0.132830 0.056961 0.370147
0.068520 0.019047 0.491067
0.121453 0.014717 0.480756
0.070329 0.065880 0.489406
0.119597 0.068049 0.471817
0.071457 0.005660 0.099210
0.120273 0.004460 0.091309
0.057533 0.080391 0.095703
0.110547 0.059504 0.100010
0.093161 0.004698 0.051395
0.120637 0.011018 0.035724
0.091242 0.083623 0.025092
0.120175 0.068737 0.030667
0.063122 0.027068 0.092499
0.111284 0.024815 0.099293
0.088148 0.096086 0.069750
0.099721 0.092435 0.099807
0.088663 0.020184 0.091713
0.062298 0.025953 0.052623
0.070816 0.091246 0.074099
0.052235 0.088909 0.046927
0.089537 0.072791 0.151099
0.076968 0.054508 0.149755
0.068049 0.025671 0.132333
0.104319 0.035956 0.142298
0.088983 0.070930 0.197724
0.093046 0.053677 0.195874
0.096553 0.024714 0.197103
0.093768 0.001063 0.197118
0.075761 0.085487 0.310326
0.122526 0.080936 0.296269
0.068504 0.040119 0.305186
0.111812 0.036761 0.299198
0.003230 0.063128 0.407094
0.102182 0.077569 0.398564
0.005096 0.021768 0.417839
0.103856 0.008848 0.405149
0.043155 0.041648 0.095763
0.127409 0.047081 0.000193
0.063590 0.095289 0.095562
0.142603 0.090371 0.083851
0.017317 0.053256 0.051264
0.129338 0.044011 0.059469
0.024306 0.089406 0.057082
0.137928 0.082680 0.030102
0.015555 0.061859 0.001614
0.129173 0.065728 0.095489
0.016140 0.000757 0.020890
0.127071 0.097038 0.027556
0.098795 0.061251 0.124070
0.121517 0.047650 0.121361
0.031366 0.096852 0.125475
0.112383 0.089165 0.112361
0.089294 0.088840 0.163077
0.117751 0.090550 0.151661
0.009474 0.029864 0.169410
0.119114 0.023861 0.165705
0.013715 0.081777 0.235883
0.106965 0.090099 0.212562
0.036778 0.034490 0.230789
0.112528 0.033054 0.210569
0.020450 0.092261 0.381304
0.120173 0.091147 0.364840
0.012408 0.029549 0.350989
0.113254 0.034918 0.352386
0.080790 0.097829 0.453133
0.123356 0.099754 0.439677
0.091635 0.037116 0.449805
0.140037 0.040323 0.444036
0.034444 0.035522 0.081086
0.126934 0.038441 0.083306
0.006078 0.082520 0.088463
0.123101 0.093800 0.099900
0.005850 0.032720 0.044782
0.131819 0.034164 0.038569
0.099775 0.075270 0.040283
0.128125 0.087521 0.046267
0.004896 0.043222 0.009057
0.113504 0.039361 0.017068
0.097697 0.099711 0.098896
0.125850 0.091272 0.078506
0.020483 0.041313 0.111267
0.089176 0.067170 0.099755
0.096751 0.091707 0.122207
0.084841 0.098355 0.090431
0.034914 0.061936 0.164536
0.114059 0.074016 0.163159
0.094904 0.015163 0.157270
0.076985 0.003954 0.154599
0.033453 0.070567 0.205113
0.098224 0.068319 0.224972
0.022521 0.008188 0.206545
0.088480 0.022664 0.229320
0.020382 0.073315 0.346428
0.107671 0.073822 0.333716
0.079737 0.008406 0.327249
0.128705 0.010021 0.325445
0.074163 0.069991 0.446619
0.128975 0.074407 0.427642
0.063546 0.040029 0.411132
0.111156 0.041800 0.401698
0.199955 0.078604 0.002284
0.278348 0.092457 0.014189
0.197690 0.040304 0.007454
0.273050 0.043341 0.006774
0.203013 0.082874 0.063955
0.275503 0.087656 0.077704
0.192830 0.028415 0.056743
0.275873 0.036669 0.079530
0.183873 0.089828 0.056300
0.260497 0.098668 0.053740
0.188629 0.045946 0.049137
0.264504 0.049276 0.056655
0.179522 0.089852 0.118628
0.257925 0.098060 0.111749
0.176535 0.042280 0.122364
0.262941 0.046366 0.115464
0.157635 0.080415 0.153528
0.230003 0.088617 0.158399
0.157528 0.034075 0.153156
0.234747 0.027975 0.143461
0.162523 0.088925 0.223984
0.203457 0.087680 0.173525
0.144081 0.029431 0.232099
0.210259 0.040726 0.174450
0.195135 0.007165 0.374445
0.273946 0.009609 0.380513
0.182717 0.053616 0.366527
0.260853 0.056089 0.378165
0.182722 0.005713 0.473969
0.236471 0.008051 0.465119
0.168635 0.059639 0.478768
0.177666 0.053522 0.534260
0.158516 0.050470 0.094808
0.215610 0.041012 0.096704
0.139828 0.026898 0.098373
0.199828 0.092316 0.094909
0.154837 0.043727 0.030701
0.219301 0.039850 0.053934
0.152316 0.018293 0.033985
0.211564 0.098621 0.044121
0.153737 0.071438 0.087033
0.199352 0.071251 0.083923
0.133823 0.025828 0.064069
0.198481 0.025065 0.094199
0.153860 0.053936 0.071448
0.198407 0.053889 0.091122
0.149509 0.035631 0.102784
0.198350 0.000694 0.090229
0.134117 0.046526 0.131632
0.189669 0.063160 0.125629
0.131064 0.098615 0.130165
0.183873 0.006639 0.117028
0.128612 0.063132 0.184990
0.165349 0.049917 0.160081
0.122916 0.007019 0.178805
0.165210 0.085678 0.165041
0.169994 0.080110 0.310908
0.218264 0.082475 0.312100
0.158790 0.036294 0.296292
0.204223 0.043351 0.314834
0.149519 0.067837 0.395696
0.213926 0.074489 0.391018
0.145561 0.022022 0.402927
0.213101 0.043546 0.407936
0.169075 0.080241 0.017117
0.257438 0.070520 0.033816
0.177102 0.006289 0.021395
0.252154 0.020368 0.022062
0.168368 0.081698 0.053075
0.246523 0.072734 0.077513
0.176033 0.016930 0.064798
0.248371 0.020044 0.076506
0.165946 0.090010 0.085664
0.238409 0.081324 0.011133
0.171545 0.030866 0.006412
0.233358 0.034543 0.033679
0.154511 0.090931 0.116405
0.218105 0.089572 0.106890
0.168161 0.022963 0.117170
0.215315 0.033835 0.112629
0.142289 0.078220 0.138517
0.234556 0.071412 0.132831
0.155882 0.008170 0.151302
0.201801 0.022985 0.143450
0.134747 0.071885 0.232453
0.184760 0.078040 0.189020
0.145879 0.025818 0.198599
0.189054 0.016455 0.182330
0.166893 0.089775 0.370236
0.239798 0.090929 0.357302
0.153924 0.035917 0.352368
0.226837 0.038780 0.359021
0.163711 0.098230 0.432101
0.208278 0.098645 0.430522
0.183529 0.038441 0.440913
0.256517 0.034890 0.428657
0.176790 0.056001 0.096293
0.240369 0.056768 0.096664
0.161175 0.093911 0.002117
0.237177 0.001884 0.098663
0.171775 0.050536 0.061884
0.226354 0.064782 0.049085
0.162043 0.097022 0.048392
0.230939 0.095201 0.061019
0.167052 0.061990 0.031331
0.207698 0.070342 0.030049
0.160056 0.014595 0.092734
0.209264 0.008212 0.019369
0.166496 0.073708 0.112260
0.231449 0.070121 0.094615
0.158950 0.004706 0.071964
0.230959 0.022510 0.084254
0.143149 0.055407 0.140572
0.200806 0.062666 0.143976
0.140883 0.002883 0.137396
0.198018 0.095978 0.139167
0.143562 0.062471 0.198450
0.177620 0.051459 0.180051
0.142729 0.095861 0.197734
0.168628 0.005883 0.170530
0.147454 0.074319 0.337570
0.201462 0.072692 0.346156
0.170568 0.013606 0.332239
0.211061 0.010933 0.333068
0.179531 0.071414 0.417484
0.252211 0.080460 0.417948
0.177075 0.028059 0.396032
0.231651 0.013312 0.396161
0.383305 0.096316 0.056056
0.473190 0.098683 0.032065
0.364880 0.052153 0.052242
0.474032 0.057398 0.030557
0.387889 0.096880 0.095047
0.481997 0.004401 0.090942
0.376310 0.054766 0.098229
0.480628 0.059690 0.091984
0.376350 0.012149 0.082045
0.491496 0.019595 0.065054
0.369014 0.061539 0.081225
0.489965 0.066306 0.067191
0.373695 0.006472 0.132872
0.480971 0.015037 0.119270
0.370518 0.057161 0.130864
0.471352 0.068676 0.116266
0.375391 0.006795 0.192965
0.474062 0.005684 0.179458
0.367184 0.053527 0.179898
0.507456 0.058725 0.138390
0.381107 0.009845 0.271011
0.466196 0.008299 0.233366
0.378929 0.056213 0.258032
0.522691 0.055468 0.181474
0.230595 0.083078 0.227028
0.281229 0.094094 0.225330
0.212662 0.039718 0.228800
0.289501 0.044486 0.230212
0.227261 0.092979 0.280671
0.280013 0.093161 0.280187
0.232774 0.043778 0.286135
0.281467 0.046142 0.279026
0.296124 0.076885 0.039207
0.389593 0.066648 0.037571
0.293386 0.029523 0.038184
0.414984 0.009699 0.036278
0.300145 0.080442 0.096497
0.400903 0.073006 0.069296
0.305176 0.036006 0.097430
0.422934 0.007693 0.073611
0.311193 0.085685 0.071678
0.406863 0.063559 0.099955
0.306982 0.041132 0.064272
0.418239 0.022156 0.001398
0.296821 0.080938 0.120342
0.398815 0.078019 0.099855
0.299513 0.036788 0.109615
0.404852 0.009234 0.101006
0.312078 0.080358 0.167693
0.396045 0.068280 0.146563
0.299296 0.037405 0.155773
0.403100 0.022259 0.142589
0.313117 0.082914 0.215573
0.391804 0.074786 0.210699
0.316146 0.043772 0.200621
0.408775 0.043724 0.210127
0.179468 0.056777 0.216163
0.252672 0.051325 0.164251
0.178061 0.023813 0.214729
0.267308 0.009383 0.145244
0.165163 0.051448 0.253202
0.242822 0.045461 0.237869
0.147766 0.007793 0.263270
0.235236 0.097119 0.238042
0.349712 0.091561 0.046482
0.432030 0.091238 0.040154
0.347332 0.029135 0.045076
0.448979 0.033393 0.041355
0.355692 0.086606 0.080124
0.441129 0.090977 0.097305
0.342314 0.031692 0.080910
0.439947 0.038326 0.096371
0.382001 0.092744 0.017088
0.453670 0.098239 0.077266
0.351137 0.029847 0.009041
0.450375 0.037123 0.087692
0.365113 0.091391 0.117783
0.439961 0.100000 0.121014
0.352325 0.035260 0.110941
0.444523 0.040557 0.137443
0.370971 0.090090 0.164222
0.432094 0.098492 0.160816
0.352688 0.036200 0.151274
0.442524 0.039144 0.180531
0.358149 0.090934 0.236871
0.431475 0.098645 0.205420
0.359969 0.038969 0.224027
0.429615 0.035009 0.253363
0.204149 0.078937 0.209751
0.276441 0.079735 0.165815
0.225067 0.020776 0.206963
0.267329 0.027319 0.200165
0.171089 0.080639 0.275417
0.267582 0.077361 0.263766
0.201715 0.026435 0.267046
0.275707 0.020522 0.264955
0.327802 0.062283 0.045148
0.430720 0.066731 0.030435
0.317882 0.004633 0.031727
0.385627 0.030696 0.027288
0.330787 0.062748 0.087719
0.425625 0.074909 0.082142
0.332488 0.000767 0.095412
0.391355 0.033325 0.082012
0.347455 0.073275 0.016324
0.447386 0.070324 0.069848
0.327882 0.008584 0.075727
0.411401 0.040313 0.060511
0.334784 0.074357 0.105287
0.427795 0.074439 0.126726
0.325867 0.010099 0.126580
0.401560 0.042373 0.108255
0.338252 0.074647 0.144594
0.418026 0.071766 0.176465
0.333570 0.013257 0.168017
0.396938 0.028728 0.173753
0.347099 0.072789 0.198486
0.418716 0.080482 0.249332
0.333893 0.011266 0.208359
0.396888 0.013288 0.228480
0.224617 0.058679 0.193615
0.262489 0.068504 0.203839
0.199987 0.002485 0.199235
0.246554 0.099496 0.184967
0.203954 0.068195 0.256907
0.251017 0.062885 0.251288
0.189756 0.000889 0.245386
0.248583 0.015759 0.248800

CELL_TYPES 512
1
1
1
1
1
1
1
1
1
1
1
1
1
1
1
1
1
1
1
1
1
1
1
1
1
1
1
1
1
1
1
1
1
1
1
1
1
1
1
1
1
1
1
1
1
1
1
1
1
1
1
1
1
1
1
1
1
1
1
1
1
1
1
1
1
1
1
1
1
1
1
1
1
1
1
1
1
1
1
1
1
1
1
1
1
1
1
1
1
1
1
1
1
1
1
1
1
1
1
1
1
1
1
1
1
1
1
1
1
1
1
1
1
1
1
1
1
1
1
1
1
1
1
1
1
1
1
1
1
1
1
1
1
1
1
1
1
1
1
1
1
1
1
1
1
1
1
1
1
1
1
1
1
1
1
1
1
1
1
1
1
1
1
1
1
1
1
1
1
1
1
1
1
1
1
1
1
1
1
1
1
1
1
1
1
1
1
1
1
1
1
1
1
1
1
1
1
1
1
1
1
1
1
1
1
1
1
1
1
1
1
1
1
1
1
1
1
1
1
1
1
1
1
1
1
1
1
1
1
1
1
1
1
1
1
1
1
1
1
1
1
1
1
1
1
1
1
1
1
1
1
1
1
1
1
1
1
1
1
1
1
1
1
1
1
1
1
1
1
1
1
1
1
1
1
1
1
1
1
1
1
1
1
1
1
1
1
1
1
1
1
1
1
1
1
1
1
1
1
1
1
1
1
1
1
1
1
1
1
1
1
1
1
1
1
1
1
1
1
1
1
1
1
1
1
1
1
1
1
1
1
1
1
1
1
1
1
1
1
1
1
1
1
1
1
1
1
1
1
1
1
1
1
1
1
1
1
1
1
1
1
1
1
1
1
1
1
1
1
1
1
1
1
1
1
1
1
1
1
1
1
1
1
1
1
1
1
1
1
1
1
1
1
1
1
1
1
1
1
1
1
1
1
1
1
1
1
1
1
1
1
1
1
1
1
1
1
1
1
1
1
1
1
1
1
1
1
1
1
1
1
1
1
1
1
1
1
1
1
1
1
1
1
1
1
1
1
1
1
1
1
1
1
1
1
1
1
1
1
1
1
1
1
1
1
1
1
1
1
1
1
1
1
1
1
1
1
1
1
1
1
1
1
1
1
1
1
1
1
1
1
1
1
1
1
1
1
1
1
1
1
1
1
1
1
1
1
1
1
1
1
1

POINT_DATA 512
SCALARS radius float
LOOKUP_TABLE default
0.5
0.5
0.5
0.5
0.5
0.5
0.5
0.5
0.5
0.5
0.5
0.5
0.5
0.5
0.5
0.5
0.5
0.5
0.5
0.5
0.5
0.5
0.5
0.5
0.5
0.5
0.5
0.5
0.5
0.5
0.5
0.5
0.5
0.5
0.5
0.5
0.5
0.5
0.5
0.5
0.5
0.5
0.5
0.5
0.5
0.5
0.5
0.5
0.5
0.5
0.5
0.5
0.5
0.5
0.5
0.5
0.5
0.5
0.5
0.5
0.5
0.5
0.5
0.5
0.5
0.5
0.5
0.5
0.5
0.5
0.5
0.5
0.5
0.5
0.5
0.5
0.5
0.5
0.5
0.5
0.5
0.5
0.5
0.5
0.5
0.5
0.5
0.5
0.5
0.5
0.5
0.5
0.5
0.5
0.5
0.5
0.5
0.5
0.5
0.5
0.5
0.5
0.5
0.5
0.5
0.5
0.5
0.5
0.5
0.5
0.5
0.5
0.5
0.5
0.5
0.5
0.5
0.5
0.5
0.5
0.5
0.5
0.5
0.5
0.5
0.5
0.5
0.5
0.5
0.5
0.5
0.5
0.5
0.5
0.5
0.5
0.5
0.5
0.5
0.5
0.5
0.5
0.5
0.5
0.5
0.5
0.5
0.5
0.5
0.5
0.5
0.5
0.5
0.5
0.5
0.5
0.5
0.5
0.5
0.5
0.5
0.5
0.5
0.5
0.5
0.5
0.5
0.5
0.5
0.5
0.5
0.5
0.5
0.5
0.5
0.5
0.5
0.5
0.5
0.5
0.5
0.5
0.5
0.5
0.5
0.5
0.5
0.5
0.5
0.5
0.5
0.5
0.5
0.5
0.5
0.5
0.5
0.5
0.5
0.5
0.5
0.5
0.5
0.5
0.5
0.5
0.5
0.5
0.5
0.5
0.5
0.5
0.5
0.5
0.5
0.5
0.5
0.5
0.5
0.5
0.5
0.5
0.5
0.5
0.5
0.5
0.5
0.5
0.5
0.5
0.5
0.5
0.5
0.5
0.5
0.5
0.5
0.5
0.5
0.5
0.5
0.5
0.5
0.5
0.5
0.5
0.5
0.5
0.5
0.5
0.5
0.5
0.5
0.5
0.5
0.5
0.5
0.5
0.5
0.5
0.5
0.5
0.5
0.5
0.5
0.5
0.5
0.5
0.5
0.5
0.5
0.5
0.5
0.5
0.5
0.5
0.5
0.5
0.5
0.5
0.5
0.5
0.5
0.5
0.5
0.5
0.5
0.5
0.5
0.5
0.5
0.5
0.5
0.5
0.5
0.5
0.5
0.5
0.5
0.5
0.5
0.5
0.5
0.5
0.5
0.5
0.5
0.5
0.5
0.5
0.5
0.5
0.5
0.5
0.5
0.5
0.5
0.5
0.5
0.5
0.5
0.5
0.5
0.5
0.5
0.5
0.5
0.5
0.5
0.5
0.5
0.5
0.5
0.5
0.5
0.5
0.5
0.5
0.5
0.5
0.5
0.5
0.5
0.5
0.5
0.5
0.5
0.5
0.5
0.5
0.5
0.5
0.5
0.5
0.5
0.5
0.5
0.5
0.5
0.5
0.5
0.5
0.5
0.5
0.5
0.5
0.5
0.5
0.5
0.5
0.5
0.5
0.5
0.5
0.5
0.5
0.5
0.5
0.5
0.5
0.5
0.5
0.5
0.5
0.5
0.5
0.5
0.5
0.5
0.5
0.5
0.5
0.5
0.5
0.5
0.5
0.5
0.5
0.5
0.5
0.5
0.5
0.5
0.5
0.5
0.5
0.5
0.5
0.5
0.5
0.5
0.5
0.5
0.5
0.5
0.5
0.5
0.5
0.5
0.5
0.5
0.5
0.5
0.5
0.5
0.5
0.5
0.5
0.5
0.5
0.5
0.5
0.5
0.5
0.5
0.5
0.5
0.5
0.5
0.5
0.5
0.5
0.5
0.5
0.5
0.5
0.5
0.5
0.5
0.5
0.5
0.5
0.5
0.5
0.5
0.5
0.5
0.5
0.5
0.5
0.5
0.5
0.5
0.5
0.5
0.5
0.5
0.5
0.5
0.5
0.5
0.5
0.5
0.5
0.5
0.5
0.5
0.5
0.5
0.5
0.5
0.5
0.5
0.5
0.5
0.5
0.5
0.5
0.5
0.5
0.5
0.5
0.5
0.5
0.5
0.5
0.5
0.5
0.5
0.5
0.5
0.5
0.5
0.5
0.5
0.5
0.5
0.5
0.5
0.5
0.5
0.5
