# vtk DataFile Version 2.0
Title Data
ASCII
DATASET UNSTRUCTURED_GRID
POINTS 512 float
0.072121 0.069457 0.099479
0.041720 0.070804 0.053595
0.063372 0.019905 0.012380
0.120932 0.025950 0.001403
0.069897 0.076263 0.046788
0.019348 0.062436 0.108853
0.031853 0.033552 0.130543
0.084325 0.011747 0.065824
0.065038 0.025968 0.099762
0.099476 0.023517 0.081602
0.059397 0.002053 0.060297
0.101589 0.067585 0.055931
0.055357 0.036745 0.162832
0.118897 0.032373 0.166128
0.043011 0.076902 0.163948
0.092847 0.073500 0.152874
0.097500 0.067138 0.199106
0.056565 0.048439 0.198245
0.057604 0.021715 0.227355
0.060879 0.094751 0.197896
0.097657 0.080993 0.273679
0.084167 0.062522 0.262073
0.098229 0.023691 0.265141
0.074400 0.008069 0.265913
0.082404 0.093816 0.354832
0.096272 0.076455 0.357664
0.045704 0.019673 0.323874
0.093933 0.031714 0.334515
0.057910 0.071558 0.471509
0.018922 0.088168 0.468945
0.058652 0.035835 0.448367
0.015879 0.034377 0.462422
0.091812 0.056451 0.015245
0.042051 0.036511 0.051541
0.130859 0.004049 0.064895
0.084683 0.095203 0.003042
0.005920 0.041675 0.078638
0.015604 0.024000 0.094866
0.011659 0.087553 0.127260
0.099947 0.082247 0.099973
0.059812 0.084400 0.126528
0.129546 0.081618 0.047034
0.068592 0.052124 0.069167
0.128058 0.050037 0.000768
0.058759 0.097035 0.041503
0.085106 0.093438 0.143955
0.025973 0.020573 0.050743
0.130312 0.038096 0.128359
0.041696 0.019266 0.168469
0.076856 0.018740 0.171375
0.019092 0.099118 0.166910
0.125317 0.092954 0.193188
0.096317 0.011616 0.223638
0.013143 0.007386 0.230895
0.066569 0.067576 0.232154
0.127973 0.085079 0.233031
0.030535 0.061963 0.269288
0.095312 0.047770 0.269638
0.121679 0.002722 0.280484
0.012366 0.019366 0.296362
0.040210 0.039936 0.333075
0.093652 0.054966 0.360945
0.057788 0.090913 0.387665
0.099182 0.092060 0.398274
0.097771 0.047291 0.036108
0.077664 0.040780 0.128822
0.029246 0.095857 0.098126
0.092372 0.099533 0.126693
0.091760 0.052699 0.136516
0.000152 0.057185 0.047154
0.098840 0.086982 0.079684
0.007686 0.099705 0.076846
0.021452 0.012408 0.130118
0.092793 0.041890 0.099700
0.121627 0.067329 0.092650
0.099829 0.068433 0.128199
0.114782 0.021971 0.135255
0.066770 0.011559 0.130862
0.014764 0.062744 0.161823
0.089249 0.052025 0.159821
0.096329 0.058817 0.219404
0.081826 0.054863 0.174145
0.099944 0.078926 0.203202
0.021161 0.095505 0.199765
0.127459 0.047217 0.260368
0.060433 0.049518 0.251403
0.009221 0.097246 0.259868
0.091454 0.091617 0.254095
0.044678 0.078929 0.324631
0.062932 0.061609 0.324997
0.047392 0.095993 0.292969
0.070018 0.005889 0.315667
0.067344 0.063401 0.401192
0.031691 0.066285 0.430483
0.046578 0.000139 0.426444
0.002057 0.036963 0.413851
0.099860 0.070613 0.101555
0.051315 0.082977 0.087814
0.099905 0.004064 0.126381
0.099705 0.007878 0.099559
0.091526 0.082508 0.058033
0.096861 0.089295 0.127348
0.064727 0.004502 0.094820
0.022174 0.000883 0.032365
0.105758 0.099234 0.099725
0.092525 0.095717 0.086743
0.058162 0.059067 0.036904
0.076139 0.036789 0.046579
0.049570 0.096730 0.130034
0.068755 0.003446 0.161514
0.131509 0.057004 0.132889
0.128976 0.075066 0.135735
0.050090 0.025664 0.201746
0.007780 0.024894 0.199215
0.069726 0.078977 0.165151
0.107520 0.073137 0.200013
0.094395 0.024779 0.247399
0.013058 0.041906 0.237970
0.095690 0.084254 0.234426
0.035195 0.080688 0.254079
0.072916 0.031517 0.295142
0.100016 0.043561 0.299886
0.030190 0.080979 0.295677
0.097214 0.070399 0.315296
0.046811 0.036390 0.401197
0.094597 0.055719 0.392460
0.034210 0.098553 0.350419
0.098928 0.016396 0.362102
0.041237 0.041470 0.020719
0.166987 0.034520 0.102343
0.068798 0.084924 0.095629
0.180440 0.088188 0.137653
0.099969 0.024999 0.100021
0.173833 0.023104 0.132483
0.133181 0.089290 0.070010
0.147060 0.074974 0.088890
0.099241 0.057668 0.079005
0.135345 0.035396 0.090524
0.093396 0.082680 0.028144
0.160500 0.075812 0.008014
0.091013 0.027714 0.141176
0.138532 0.048743 0.148649
0.097369 0.094030 0.162328
0.136999 0.093427 0.144381
0.003277 0.052635 0.200982
0.159427 0.062626 0.202999
0.099984 0.016233 0.199931
0.146014 0.024381 0.202589
0.066311 0.086237 0.272584
0.133636 0.077537 0.269839
0.034806 0.033682 0.265465
0.131697 0.022867 0.275965
0.079689 0.089856 0.330873
0.132944 0.091707 0.337543
0.097660 0.046526 0.329381
0.133579 0.026924 0.358911
0.080899 0.001549 0.462474
0.123734 0.009468 0.471242
0.100412 0.059697 0.468586
0.116826 0.044498 0.438601
0.118714 0.086959 0.160402
0.159315 0.084016 0.117604
0.130495 0.043139 0.056229
0.134808 0.025469 0.059353
0.033094 0.086106 0.069823
0.124405 0.088188 0.099998
0.099923 0.042598 0.132748
0.169303 0.043337 0.128152
0.127674 0.096610 0.098636
0.138943 0.093505 0.123094
0.021872 0.069172 0.089033
0.042255 0.049014 0.080175
0.099882 0.004623 0.017088
0.092271 0.094307 0.054464
0.017210 0.077589 0.035691
0.061340 0.064183 0.095637
0.019414 0.039198 0.167857
0.099567 0.023235 0.167454
0.121340 0.001420 0.164205
0.138156 0.008340 0.179867
0.040587 0.048726 0.223780
0.099605 0.030936 0.199992
0.086522 0.095899 0.230765
0.044267 0.079511 0.228560
0.095111 0.070813 0.294158
0.136823 0.051854 0.287607
0.048079 0.015704 0.269984
0.099980 0.013123 0.299845
0.013011 0.037921 0.365449
0.051216 0.064659 0.364015
0.018591 0.005231 0.386793
0.015681 0.072578 0.387217
0.102696 0.011199 0.035847
0.133052 0.023661 0.110525
0.132739 0.060959 0.044661
0.162445 0.062014 0.119762
0.045209 0.021728 0.103699
0.155098 0.015833 0.087527
0.128373 0.050535 0.086860
0.170554 0.056340 0.040497
0.099921 0.037893 0.099896
0.138482 0.042467 0.031270
0.099981 0.064743 0.125716
0.130911 0.081526 0.023609
0.053820 0.043813 0.134260
0.137792 0.011690 0.134302
0.042756 0.078908 0.133985
0.093300 0.074038 0.000171
0.044520 0.060762 0.180766
0.135454 0.068708 0.181767
0.099813 0.091673 0.199799
0.141385 0.097576 0.200155
0.099935 0.068371 0.241012
0.041815 0.077502 0.201593
0.126790 0.005893 0.232645
0.089769 0.099781 0.195831
0.010476 0.070298 0.339474
0.128859 0.063401 0.326040
0.099842 0.097746 0.318752
0.116344 0.016413 0.320329
0.079134 0.072175 0.431099
0.116450 0.086808 0.428434
0.098235 0.094382 0.426702
0.136470 0.015034 0.407382
0.137380 0.004502 0.096489
0.158746 0.013949 0.029161
0.036094 0.052861 0.100211
0.162679 0.064717 0.063208
0.047469 0.097489 0.087937
0.164359 0.099370 0.100537
0.053970 0.034439 0.085270
0.172196 0.073207 0.131593
0.100055 0.052483 0.099976
0.130314 0.099359 0.046037
0.099931 0.094150 0.100086
0.134758 0.071980 0.099996
0.097421 0.024172 0.035957
0.094796 0.033377 0.059192
0.050947 0.059565 0.132889
0.047100 0.084939 0.010961
0.130587 0.043390 0.174413
0.129276 0.050256 0.198664
0.045720 0.094096 0.165059
0.099684 0.075162 0.170900
0.090396 0.046981 0.199459
0.090071 0.038167 0.228818
0.076801 0.083425 0.196743
0.050776 0.000850 0.232517
0.012348 0.049609 0.300633
0.058061 0.051908 0.294175
0.098891 0.092959 0.298935
0.121272 0.082837 0.299774
0.089573 0.024305 0.425494
0.120834 0.047082 0.397446
0.086920 0.019535 0.394342
0.061763 0.027941 0.364154
0.197986 0.034243 0.058243
0.271631 0.087006 0.084588
0.224850 0.030807 0.054018
0.265427 0.033307 0.084869
0.198410 0.065172 0.061417
0.262330 0.057789 0.045708
0.219133 0.096001 0.093291
0.272033 0.008944 0.062139
0.199977 0.066764 0.099962
0.265699 0.082673 0.109775
0.199954 0.008695 0.097454
0.269574 0.022426 0.112894
0.209447 0.065475 0.132857
0.277980 0.071922 0.134995
0.203613 0.019106 0.144703
0.272929 0.016006 0.134547
0.197364 0.042617 0.161881
0.252032 0.062175 0.148572
0.177722 0.009769 0.177449
0.248927 0.001266 0.148369
0.166356 0.069022 0.242022
0.231345 0.061966 0.182045
0.139687 0.002626 0.245666
0.229479 0.013499 0.183286
0.182713 0.091489 0.331585
0.263739 0.092782 0.328762
0.173828 0.025960 0.341743
0.251481 0.036901 0.337796
0.158428 0.088748 0.447607
0.249889 0.078309 0.417161
0.158908 0.040277 0.442651
0.078698 0.033833 0.496335
0.177649 0.029091 0.053810
0.232916 0.016479 0.080610
0.157412 0.094681 0.034686
0.231600 0.071470 0.076889
0.172775 0.016660 0.063934
0.237520 0.018746 0.021788
0.173734 0.088404 0.051518
0.224918 0.079001 0.008012
0.164238 0.047235 0.094104
0.219325 0.050186 0.038393
0.167244 0.095083 0.085516
0.211557 0.097058 0.048521
0.161731 0.028274 0.007529
0.230659 0.010240 0.108466
0.183785 0.001694 0.131855
0.214569 0.072972 0.031321
0.157739 0.009748 0.146124
0.222555 0.030228 0.128948
0.142962 0.072822 0.161885
0.219307 0.081840 0.126550
0.163460 0.037517 0.209062
0.197354 0.030309 0.199970
0.156487 0.082188 0.207800
0.181218 0.064487 0.174024
0.179709 0.068632 0.277063
0.200024 0.045629 0.299969
0.160558 0.004628 0.287238
0.188031 0.017759 0.298678
0.135856 0.059966 0.361753
0.207571 0.053508 0.348782
0.125387 0.089380 0.378213
0.199745 0.024124 0.379647
0.199978 0.050857 0.100007
0.262837 0.041880 0.025214
0.198794 0.086450 0.094729
0.261767 0.097325 0.099071
0.162530 0.055238 0.079647
0.256010 0.048391 0.114271
0.196697 0.009234 0.011059
0.258300 0.083767 0.042187
0.181128 0.062199 0.022384
0.249204 0.070665 0.099208
0.196919 0.096907 0.091153
0.257400 0.096287 0.020582
0.189440 0.062428 0.149696
0.235798 0.068454 0.055713
0.201602 0.096554 0.155100
0.232221 0.099115 0.128882
0.164474 0.048216 0.166649
0.243934 0.041264 0.144108
0.177221 0.089954 0.173273
0.226569 0.093098 0.166039
0.137955 0.050139 0.240735
0.186506 0.057882 0.234184
0.166258 0.095593 0.218107
0.199961 0.094405 0.199798
0.167520 0.066536 0.348769
0.231420 0.071559 0.313629
0.145603 0.015470 0.316352
0.214861 0.017368 0.320859
0.151232 0.072554 0.406970
0.194604 0.074027 0.388526
0.183136 0.011101 0.413868
0.240608 0.013148 0.389765
0.199942 0.023238 0.098676
0.245098 0.029122 0.067907
0.197106 0.077738 0.099986
0.236666 0.088206 0.079406
0.199509 0.032169 0.017447
0.238224 0.034337 0.099461
0.165807 0.082679 0.072351
0.238115 0.076038 0.123285
0.199858 0.035836 0.099951
0.208538 0.051757 0.089623
0.200008 0.093316 0.107475
0.198454 0.092422 0.049550
0.205043 0.043446 0.117381
0.237767 0.051575 0.093956
0.182158 0.086874 0.000368
0.240256 0.098591 0.053942
0.163283 0.027124 0.168494
0.221091 0.035610 0.165427
0.158225 0.087642 0.166082
0.221218 0.076058 0.163764
0.127649 0.030825 0.220341
0.199956 0.014105 0.199998
0.129497 0.066311 0.227474
0.199981 0.082094 0.199955
0.149590 0.045261 0.314159
0.191081 0.055223 0.311852
0.160205 0.081450 0.305847
0.200014 0.087348 0.298028
0.164722 0.042444 0.385583
0.238734 0.058836 0.378326
0.163643 0.097602 0.371711
0.221247 0.092839 0.353687
0.356916 0.086516 0.056623
0.468292 0.067058 0.056403
0.341837 0.025556 0.064141
0.452928 0.030317 0.069237
0.355595 0.073683 0.081317
0.468236 0.088844 0.021681
0.333945 0.032198 0.097840
0.458461 0.034760 0.024024
0.339409 0.090629 0.096904
0.474656 0.099048 0.071577
0.337032 0.048115 0.095495
0.460868 0.058284 0.099755
0.341819 0.093336 0.138533
0.469815 0.004465 0.119839
0.355752 0.026738 0.133026
0.431738 0.055234 0.120738
0.334844 0.088549 0.187982
0.446162 0.082879 0.153685
0.346343 0.024938 0.173985
0.497899 0.039655 0.084073
0.337479 0.093022 0.257620
0.453740 0.068160 0.196536
0.340496 0.041140 0.250847
0.457304 0.037299 0.151714
0.224080 0.052352 0.227904
0.269918 0.079386 0.228950
0.213811 0.017144 0.229233
0.286707 0.023283 0.221399
0.228420 0.067771 0.272610
0.269892 0.075613 0.285076
0.235295 0.014143 0.288461
0.275764 0.027474 0.290011
0.281018 0.065513 0.004737
0.349748 0.044465 0.041295
0.295562 0.096701 0.068561
0.398696 0.003366 0.076177
0.272104 0.057230 0.071573
0.358518 0.063483 0.105926
0.291558 0.008212 0.002668
0.399228 0.085850 0.093503
0.294271 0.061197 0.067914
0.371438 0.036842 0.001877
0.281695 0.024497 0.041607
0.381510 0.094702 0.098170
0.290567 0.054903 0.125768
0.383431 0.059788 0.040738
0.299962 0.013434 0.099847
0.390717 0.085892 0.034415
0.289775 0.061746 0.167127
0.369349 0.061645 0.130626
0.293315 0.029670 0.148813
0.379236 0.096257 0.129736
0.299783 0.059733 0.199975
0.355829 0.051976 0.206276
0.299957 0.021812 0.196398
0.395473 0.023874 0.202432
0.175623 0.029089 0.233188
0.262381 0.022765 0.180040
0.185881 0.095415 0.233175
0.271861 0.091739 0.147316
0.165948 0.024150 0.254738
0.256356 0.013567 0.221784
0.156553 0.087410 0.262151
0.227538 0.077014 0.225834
0.318645 0.073659 0.038992
0.399129 0.067624 0.087939
0.320916 0.001881 0.027944
0.429785 0.100000 0.046158
0.326599 0.064144 0.064097
0.424675 0.069325 0.012873
0.317934 0.007993 0.057379
0.411643 0.025381 0.012733
0.345673 0.071885 0.009572
0.431237 0.074092 0.069216
0.327516 0.098482 0.091042
0.437837 0.003077 0.096521
0.323954 0.066260 0.128578
0.419131 0.088229 0.108813
0.315362 0.017866 0.121622
0.419319 0.015573 0.140951
0.354542 0.069210 0.165192
0.403688 0.074659 0.146535
0.309694 0.012376 0.162928
0.415544 0.012853 0.185095
0.315869 0.072016 0.226156
0.395597 0.072839 0.192189
0.326754 0.016758 0.216486
0.463132 0.011719 0.188285
0.199979 0.049847 0.199963
0.267708 0.042050 0.170173
0.232645 0.092957 0.209387
0.269703 0.094646 0.181996
0.168027 0.045535 0.273041
0.289708 0.050884 0.252052
0.199483 0.003340 0.265871
0.290991 0.001195 0.254399
0.307164 0.039303 0.042686
0.419748 0.046256 0.049760
0.291437 0.081479 0.035457
0.352497 0.006831 0.022731
0.298533 0.030953 0.093717
0.396364 0.047682 0.089398
0.309275 0.071672 0.099148
0.362751 0.012650 0.094811
0.307205 0.044694 0.003808
0.419785 0.028905 0.093630
0.299956 0.084756 0.099509
0.384809 0.018598 0.047883
0.298006 0.051078 0.097117
0.396088 0.033545 0.121036
0.300823 0.092642 0.120512
0.374563 0.036740 0.078124
0.327132 0.048353 0.143715
0.387132 0.041959 0.163982
0.309393 0.083953 0.159435
0.374153 0.099696 0.168325
0.319748 0.050885 0.186405
0.386223 0.057028 0.237092
0.298525 0.090059 0.199989
0.364733 0.094586 0.217444
0.233217 0.039961 0.203262
0.264951 0.054824 0.211452
0.199995 0.068020 0.199957
0.256540 0.077792 0.185811
0.209521 0.038310 0.260617
0.250992 0.040225 0.253450
0.201427 0.082258 0.249714
0.243722 0.096164 0.255626

CELL_TYPES 512
1
1
1
1
1
1
1
1
1
1
1
1
1
1
1
1
1
1
1
1
1
1
1
1
1
1
1
1
1
1
1
1
1
1
1
1
1
1
1
1
1
1
1
1
1
1
1
1
1
1
1
1
1
1
1
1
1
1
1
1
1
1
1
1
1
1
1
1
1
1
1
1
1
1
1
1
1
1
1
1
1
1
1
1
1
1
1
1
1
1
1
1
1
1
1
1
1
1
1
1
1
1
1
1
1
1
1
1
1
1
1
1
1
1
1
1
1
1
1
1
1
1
1
1
1
1
1
1
1
1
1
1
1
1
1
1
1
1
1
1
1
1
1
1
1
1
1
1
1
1
1
1
1
1
1
1
1
1
1
1
1
1
1
1
1
1
1
1
1
1
1
1
1
1
1
1
1
1
1
1
1
1
1
1
1
1
1
1
1
1
1
1
1
1
1
1
1
1
1
1
1
1
1
1
1
1
1
1
1
1
1
1
1
1
1
1
1
1
1
1
1
1
1
1
1
1
1
1
1
1
1
1
1
1
1
1
1
1
1
1
1
1
1
1
1
1
1
1
1
1
1
1
1
1
1
1
1
1
1
1
1
1
1
1
1
1
1
1
1
1
1
1
1
1
1
1
1
1
1
1
1
1
1
1
1
1
1
1
1
1
1
1
1
1
1
1
1
1
1
1
1
1
1
1
1
1
1
1
1
1
1
1
1
1
1
1
1
1
1
1
1
1
1
1
1
1
1
1
1
1
1
1
1
1
1
1
1
1
1
1
1
1
1
1
1
1
1
1
1
1
1
1
1
1
1
1
1
1
1
1
1
1
1
1
1
1
1
1
1
1
1
1
1
1
1
1
1
1
1
1
1
1
1
1
1
1
1
1
1
1
1
1
1
1
1
1
1
1
1
1
1
1
1
1
1
1
1
1
1
1
1
1
1
1
1
1
1
1
1
1
1
1
1
1
1
1
1
1
1
1
1
1
1
1
1
1
1
1
1
1
1
1
1
1
1
1
1
1
1
1
1
1
1
1
1
1
1
1
1
1
1
1
1
1
1
1
1
1
1
1
1
1
1
1
1
1
1
1
1
1
1
1
1
1
1
1
1
1
1
1
1
1
1
1
1
1
1
1
1
1
1
1
1
1
1
1
1
1
1
1
1
1

POINT_DATA 512
SCALARS radius float
LOOKUP_TABLE default
0.5
0.5
0.5
0.5
0.5
0.5
0.5
0.5
0.5
0.5
0.5
0.5
0.5
0.5
0.5
0.5
0.5
0.5
0.5
0.5
0.5
0.5
0.5
0.5
0.5
0.5
0.5
0.5
0.5
0.5
0.5
0.5
0.5
0.5
0.5
0.5
0.5
0.5
0.5
0.5
0.5
0.5
0.5
0.5
0.5
0.5
0.5
0.5
0.5
0.5
0.5
0.5
0.5
0.5
0.5
0.5
0.5
0.5
0.5
0.5
0.5
0.5
0.5
0.5
0.5
0.5
0.5
0.5
0.5
0.5
0.5
0.5
0.5
0.5
0.5
0.5
0.5
0.5
0.5
0.5
0.5
0.5
0.5
0.5
0.5
0.5
0.5
0.5
0.5
0.5
0.5
0.5
0.5
0.5
0.5
0.5
0.5
0.5
0.5
0.5
0.5
0.5
0.5
0.5
0.5
0.5
0.5
0.5
0.5
0.5
0.5
0.5
0.5
0.5
0.5
0.5
0.5
0.5
0.5
0.5
0.5
0.5
0.5
0.5
0.5
0.5
0.5
0.5
0.5
0.5
0.5
0.5
0.5
0.5
0.5
0.5
0.5
0.5
0.5
0.5
0.5
0.5
0.5
0.5
0.5
0.5
0.5
0.5
0.5
0.5
0.5
0.5
0.5
0.5
0.5
0.5
0.5
0.5
0.5
0.5
0.5
0.5
0.5
0.5
0.5
0.5
0.5
0.5
0.5
0.5
0.5
0.5
0.5
0.5
0.5
0.5
0.5
0.5
0.5
0.5
0.5
0.5
0.5
0.5
0.5
0.5
0.5
0.5
0.5
0.5
0.5
0.5
0.5
0.5
0.5
0.5
0.5
0.5
0.5
0.5
0.5
0.5
0.5
0.5
0.5
0.5
0.5
0.5
0.5
0.5
0.5
0.5
0.5
0.5
0.5
0.5
0.5
0.5
0.5
0.5
0.5
0.5
0.5
0.5
0.5
0.5
0.5
0.5
0.5
0.5
0.5
0.5
0.5
0.5
0.5
0.5
0.5
0.5
0.5
0.5
0.5
0.5
0.5
0.5
0.5
0.5
0.5
0.5
0.5
0.5
0.5
0.5
0.5
0.5
0.5
0.5
0.5
0.5
0.5
0.5
0.5
0.5
0.5
0.5
0.5
0.5
0.5
0.5
0.5
0.5
0.5
0.5
0.5
0.5
0.5
0.5
0.5
0.5
0.5
0.5
0.5
0.5
0.5
0.5
0.5
0.5
0.5
0.5
0.5
0.5
0.5
0.5
0.5
0.5
0.5
0.5
0.5
0.5
0.5
0.5
0.5
0.5
0.5
0.5
0.5
0.5
0.5
0.5
0.5
0.5
0.5
0.5
0.5
0.5
0.5
0.5
0.5
0.5
0.5
0.5
0.5
0.5
0.5
0.5
0.5
0.5
0.5
0.5
0.5
0.5
0.5
0.5
0.5
0.5
0.5
0.5
0.5
0.5
0.5
0.5
0.5
0.5
0.5
0.5
0.5
0.5
0.5
0.5
0.5
0.5
0.5
0.5
0.5
0.5
0.5
0.5
0.5
0.5
0.5
0.5
0.5
0.5
0.5
0.5
0.5
0.5
0.5
0.5
0.5
0.5
0.5
0.5
0.5
0.5
0.5
0.5
0.5
0.5
0.5
0.5
0.5
0.5
0.5
0.5
0.5
0.5
0.5
0.5
0.5
0.5
0.5
0.5
0.5
0.5
0.5
0.5
0.5
0.5
0.5
0.5
0.5
0.5
0.5
0.5
0.5
0.5
0.5
0.5
0.5
0.5
0.5
0.5
0.5
0.5
0.5
0.5
0.5
0.5
0.5
0.5
0.5
0.5
0.5
0.5
0.5
0.5
0.5
0.5
0.5
0.5
0.5
0.5
0.5
0.5
0.5
0.5
0.5
0.5
0.5
0.5
0.5
0.5
0.5
0.5
0.5
0.5
0.5
0.5
0.5
0.5
0.5
0.5
0.5
0.5
0.5
0.5
0.5
0.5
0.5
0.5
0.5
0.5
0.5
0.5
0.5
0.5
0.5
0.5
0.5
0.5
0.5
0.5
0.5
0.5
0.5
0.5
0.5
0.5
0.5
0.5
0.5
0.5
0.5
0.5
0.5
0.5
0.5
0.5
0.5
0.5
0.5
0.5
0.5
0.5
0.5
0.5
0.5
0.5
0.5
0.5
0.5
0.5
0.5
0.5
0.5
0.5
0.5
0.5
0.5
0.5
0.5
0.5
