# vtk DataFile Version 2.0
Title Data
ASCII
DATASET UNSTRUCTURED_GRID
POINTS 512 float
0.006231 0.033922 0.092299
0.099299 0.027475 0.099963
0.017038 0.077862 0.089302
0.126154 0.087809 0.051099
0.028235 0.035441 0.100543
0.097357 0.014930 0.097673
0.096069 0.092260 0.132205
0.045613 0.078220 0.008927
0.002873 0.090488 0.076688
0.078215 0.082154 0.009410
0.014705 0.065271 0.000725
0.098164 0.032303 0.098840
0.002971 0.093768 0.153486
0.125795 0.091008 0.160666
0.102239 0.037370 0.149693
0.049122 0.031297 0.144717
0.055913 0.025408 0.185216
0.009730 0.005419 0.190240
0.015445 0.084533 0.216136
0.010893 0.055892 0.182866
0.085717 0.040679 0.259563
0.043200 0.018393 0.251232
0.072755 0.086308 0.259009
0.040275 0.076680 0.255227
0.053959 0.057480 0.345213
0.073525 0.040359 0.347188
0.003765 0.079626 0.303153
0.059556 0.085238 0.321243
0.034188 0.030179 0.461255
0.098746 0.047919 0.449615
0.031193 0.095571 0.435338
0.090131 0.093018 0.447192
0.040736 0.018281 0.080489
0.100662 0.093536 0.099898
0.130542 0.070941 0.000475
0.030040 0.057573 0.068954
0.079763 0.001439 0.003160
0.088690 0.086022 0.040965
0.099971 0.043297 0.099934
0.094429 0.051388 0.061969
0.008034 0.041460 0.120879
0.121005 0.044469 0.100010
0.032673 0.010221 0.011461
0.132560 0.008010 0.073683
0.100022 0.059568 0.085139
0.037274 0.049459 0.134439
0.082556 0.082651 0.088756
0.136559 0.095233 0.128225
0.099015 0.083799 0.156515
0.039142 0.083373 0.164925
0.079202 0.065781 0.156220
0.132120 0.053257 0.182266
0.055016 0.076532 0.208569
0.093133 0.070510 0.227518
0.020915 0.027490 0.215421
0.124714 0.045104 0.219074
0.100634 0.018824 0.260071
0.064227 0.009083 0.262939
0.128209 0.064255 0.268487
0.081598 0.079586 0.281327
0.100009 0.099697 0.316665
0.061944 0.009080 0.350834
0.029556 0.053250 0.374417
0.090138 0.049657 0.393890
0.055810 0.001264 0.081971
0.027161 0.097468 0.121944
0.083677 0.053877 0.049967
0.047491 0.070670 0.123108
0.048404 0.010859 0.128880
0.069615 0.003683 0.096012
0.069391 0.042266 0.016660
0.101524 0.069679 0.008304
0.068360 0.076810 0.130447
0.045769 0.096118 0.051640
0.127951 0.029030 0.037092
0.086280 0.027829 0.133599
0.118492 0.084774 0.125639
0.005886 0.073863 0.121887
0.094651 0.012455 0.154505
0.057193 0.002312 0.164624
0.060244 0.018317 0.215282
0.029160 0.012052 0.159749
0.099954 0.045869 0.199947
0.072221 0.054214 0.185953
0.127491 0.002169 0.248938
0.024227 0.000589 0.237444
0.098718 0.064368 0.251623
0.052643 0.058522 0.250232
0.099988 0.035380 0.307196
0.041387 0.020288 0.312371
0.013122 0.050479 0.278222
0.040793 0.072317 0.301080
0.038491 0.021124 0.387057
0.001905 0.025676 0.412244
0.025994 0.061597 0.415103
0.095853 0.098769 0.399919
0.086582 0.023023 0.066355
0.100342 0.044177 0.039587
0.096569 0.071305 0.128254
0.055806 0.085431 0.053877
0.055494 0.042662 0.099558
0.059334 0.044865 0.125309
0.014058 0.073684 0.046608
0.099984 0.077721 0.100120
0.096755 0.055872 0.089205
0.047653 0.063377 0.027857
0.008559 0.011798 0.080300
0.030720 0.093533 0.095002
0.099968 0.063340 0.111603
0.018110 0.071532 0.151969
0.134721 0.015004 0.128837
0.131892 0.037181 0.130414
0.096979 0.081847 0.182727
0.098827 0.086536 0.201103
0.013851 0.036561 0.155775
0.099970 0.023325 0.200017
0.071212 0.084765 0.231923
0.097377 0.098979 0.237617
0.059420 0.040791 0.223648
0.098289 0.049086 0.238786
0.043537 0.091926 0.282569
0.099990 0.096770 0.299253
0.099326 0.048748 0.280659
0.089876 0.028310 0.299829
0.013614 0.091987 0.385663
0.069449 0.019241 0.382494
0.000187 0.060446 0.340121
0.092677 0.075063 0.343906
0.097356 0.098093 0.067042
0.169407 0.096673 0.065802
0.025549 0.043046 0.041194
0.189828 0.049740 0.130696
0.098381 0.090697 0.086700
0.174972 0.085123 0.126320
0.133804 0.046973 0.004182
0.144156 0.032893 0.031805
0.057513 0.019482 0.023380
0.134825 0.090970 0.029221
0.053444 0.041317 0.071880
0.164452 0.036078 0.059335
0.050800 0.088315 0.127531
0.137694 0.005289 0.143898
0.059513 0.054618 0.163590
0.143322 0.057610 0.137799
0.095745 0.005046 0.195123
0.161513 0.017460 0.195034
0.099992 0.074613 0.199949
0.145510 0.086627 0.199431
0.024503 0.042654 0.255392
0.133709 0.035284 0.262443
0.104568 0.089263 0.251319
0.129994 0.085219 0.265615
0.042137 0.047354 0.319061
0.135881 0.057975 0.326097
0.067586 0.002573 0.316932
0.130726 0.085874 0.344467
0.056612 0.064498 0.455031
0.116015 0.069769 0.454832
0.085030 0.025635 0.460996
0.110082 0.004786 0.423696
0.121722 0.045629 0.158792
0.170910 0.046504 0.118628
0.124794 0.000301 0.099559
0.140840 0.087309 0.098101
0.099857 0.043780 0.005757
0.132022 0.052160 0.062901
0.068766 0.098591 0.132656
0.168612 0.097133 0.126990
0.130327 0.060155 0.049929
0.138071 0.054105 0.120268
0.100284 0.025181 0.027333
0.102306 0.098375 0.032731
0.053476 0.068954 0.075028
0.058516 0.060409 0.096370
0.061294 0.030483 0.099562
0.100527 0.019173 0.052929
0.085034 0.096473 0.161322
0.066383 0.084555 0.163227
0.122967 0.071017 0.160972
0.140209 0.077465 0.175140
0.089290 0.001297 0.218968
0.095543 0.094839 0.192247
0.048822 0.056369 0.217866
0.099996 0.034439 0.216706
0.056813 0.031052 0.283337
0.137692 0.011169 0.275816
0.100018 0.079552 0.258780
0.099975 0.072925 0.300018
0.096388 0.095350 0.347620
0.018269 0.022249 0.348172
0.094606 0.073105 0.376471
0.099925 0.030468 0.369221
0.099654 0.069166 0.093570
0.129989 0.087473 0.094401
0.138050 0.016291 0.096703
0.166652 0.014939 0.117195
0.098102 0.085994 0.060471
0.164723 0.080802 0.033819
0.130012 0.004131 0.015570
0.176364 0.005597 0.091837
0.097880 0.098444 0.097308
0.136807 0.095890 0.067947
0.100010 0.012126 0.113455
0.137751 0.038366 0.093102
0.099768 0.095655 0.120058
0.140980 0.075952 0.129178
0.091089 0.045526 0.128113
0.046803 0.029055 0.049414
0.098593 0.017233 0.169538
0.135564 0.027597 0.176180
0.099978 0.060273 0.199937
0.145454 0.063021 0.194619
0.083993 0.027054 0.236791
0.099787 0.037436 0.190826
0.128556 0.076186 0.222082
0.047226 0.071358 0.184549
0.095651 0.036611 0.328940
0.128359 0.015223 0.317425
0.095484 0.060097 0.319318
0.102776 0.084445 0.299995
0.059600 0.028465 0.422648
0.107187 0.042675 0.406782
0.074599 0.062971 0.417807
0.132796 0.074298 0.396505
0.137725 0.073810 0.044007
0.157134 0.077689 0.091135
0.097299 0.012619 0.052933
0.163310 0.015773 0.096653
0.100146 0.070605 0.043420
0.170013 0.067955 0.070333
0.014416 0.095914 0.035609
0.176570 0.028378 0.128022
0.068064 0.003208 0.046855
0.132814 0.068195 0.090725
0.066671 0.061657 0.043511
0.137077 0.025077 0.063338
0.057149 0.082436 0.085003
0.060720 0.091636 0.096302
0.099978 0.017403 0.125094
0.095443 0.038731 0.072806
0.132362 0.099656 0.166370
0.136658 0.008446 0.191190
0.102647 0.061585 0.152682
0.076724 0.036686 0.162149
0.049783 0.097206 0.190027
0.053251 0.094126 0.215446
0.035085 0.042472 0.186197
0.007499 0.063676 0.222624
0.099986 0.009508 0.287869
0.015932 0.007739 0.280184
0.060960 0.055659 0.287531
0.115418 0.043282 0.299991
0.062840 0.087855 0.412193
0.120141 0.002942 0.382844
0.057266 0.079534 0.375705
0.027865 0.087972 0.343694
0.201490 0.089900 0.008112
0.271086 0.045392 0.041067
0.221429 0.091406 0.095928
0.272197 0.088339 0.043603
0.195715 0.029636 0.007613
0.260830 0.007717 0.097452
0.224691 0.060305 0.044549
0.273721 0.071730 0.009551
0.200003 0.017451 0.100012
0.265870 0.040955 0.103298
0.199123 0.070254 0.062908
0.270429 0.087827 0.102773
0.212559 0.018830 0.128478
0.282335 0.031967 0.132741
0.205687 0.081924 0.137555
0.272159 0.078026 0.130949
0.201329 0.096302 0.154676
0.256692 0.021762 0.143171
0.182104 0.074854 0.169217
0.252065 0.066466 0.140193
0.163380 0.025307 0.231237
0.235479 0.020071 0.171773
0.142215 0.066789 0.234852
0.234653 0.077527 0.172484
0.180189 0.051220 0.320553
0.262064 0.056492 0.313836
0.170450 0.087324 0.329625
0.246255 0.096421 0.317443
0.149448 0.048699 0.434152
0.232561 0.037748 0.399403
0.154789 0.000179 0.424978
0.059296 0.095046 0.482274
0.175322 0.090183 0.097859
0.234909 0.078922 0.036230
0.158744 0.055852 0.083876
0.233409 0.023475 0.023957
0.171205 0.080168 0.000850
0.240124 0.083210 0.075949
0.163720 0.048591 0.095350
0.232168 0.042555 0.060260
0.166999 0.000499 0.041771
0.223257 0.001776 0.091000
0.168674 0.062288 0.030483
0.209424 0.064326 0.095011
0.163706 0.087646 0.071719
0.234320 0.074757 0.090477
0.187804 0.069643 0.123584
0.220990 0.033144 0.068582
0.160205 0.079285 0.138836
0.228216 0.089052 0.125118
0.150904 0.032501 0.155045
0.221494 0.040977 0.118595
0.166980 0.094111 0.200834
0.200020 0.091181 0.199134
0.165302 0.040198 0.201449
0.180739 0.019231 0.163875
0.179426 0.029537 0.263692
0.203065 0.004246 0.289983
0.162366 0.066680 0.279431
0.189997 0.078595 0.291778
0.132559 0.019628 0.349145
0.204404 0.012119 0.332554
0.123982 0.050215 0.361564
0.197571 0.084415 0.363076
0.203280 0.012498 0.065185
0.264329 0.002401 0.077394
0.197016 0.042787 0.038478
0.271507 0.066806 0.057515
0.165337 0.009050 0.020610
0.257474 0.099519 0.118298
0.199997 0.078658 0.099981
0.254556 0.047106 0.094950
0.176817 0.023856 0.064940
0.245675 0.024844 0.075004
0.203440 0.064804 0.019226
0.258351 0.062830 0.077740
0.199056 0.018033 0.146878
0.234278 0.024646 0.099178
0.203758 0.059448 0.152448
0.232451 0.066115 0.126928
0.170136 0.099353 0.162261
0.243928 0.097339 0.136890
0.178423 0.052215 0.165471
0.226985 0.056730 0.160974
0.138890 0.005020 0.229033
0.188831 0.015808 0.229937
0.170342 0.059077 0.207067
0.199992 0.058534 0.200008
0.165266 0.024708 0.337985
0.232820 0.033016 0.299735
0.142263 0.077412 0.304618
0.203846 0.078255 0.302823
0.149548 0.033011 0.393031
0.193145 0.033539 0.373555
0.178623 0.068799 0.401941
0.238431 0.074016 0.371402
0.200581 0.084625 0.056423
0.244159 0.090142 0.010910
0.200041 0.035007 0.099360
0.243208 0.050241 0.026549
0.199891 0.093186 0.099846
0.242125 0.092651 0.060227
0.162640 0.043195 0.005379
0.236305 0.032370 0.126793
0.202054 0.095417 0.050134
0.205053 0.011317 0.030051
0.199987 0.054492 0.089843
0.200002 0.048161 0.099954
0.200027 0.097643 0.103948
0.238592 0.006269 0.045085
0.179745 0.046800 0.051948
0.244192 0.067749 0.099696
0.166867 0.086859 0.164502
0.224083 0.093518 0.162140
0.163893 0.047072 0.160514
0.221304 0.035548 0.163078
0.110927 0.092169 0.200013
0.200021 0.077003 0.193748
0.127716 0.026110 0.216257
0.200012 0.041993 0.194490
0.148238 0.100000 0.302482
0.189336 0.015743 0.300001
0.156089 0.040541 0.295425
0.200284 0.046249 0.290170
0.161678 0.098486 0.374183
0.236764 0.017493 0.359157
0.161213 0.060866 0.360450
0.218533 0.054767 0.336923
0.357236 0.052154 0.016927
0.475420 0.022619 0.025157
0.337559 0.088463 0.020947
0.455052 0.090398 0.041312
0.361260 0.031120 0.043333
0.466151 0.046084 0.096283
0.336650 0.092518 0.073625
0.457948 0.092367 0.094661
0.341810 0.052196 0.070242
0.480503 0.058600 0.049089
0.336121 0.004961 0.058525
0.469223 0.021360 0.074751
0.341146 0.056574 0.131236
0.480831 0.069557 0.108573
0.356624 0.088245 0.127338
0.433734 0.012679 0.116276
0.335989 0.048756 0.177174
0.451766 0.044600 0.139848
0.346080 0.083875 0.167282
0.499946 0.096966 0.062295
0.335303 0.052811 0.247028
0.457296 0.024121 0.187839
0.337824 0.002737 0.241039
0.462698 0.098367 0.140607
0.221616 0.006616 0.214043
0.268159 0.039388 0.225093
0.212945 0.082351 0.214307
0.284799 0.085033 0.209783
0.227339 0.025465 0.259306
0.268666 0.035192 0.272093
0.236895 0.075152 0.278493
0.275793 0.088401 0.280002
0.275107 0.025930 0.059061
0.344085 0.098898 0.098276
0.297625 0.053182 0.029971
0.403096 0.064887 0.038305
0.270062 0.015315 0.022900
0.369733 0.022475 0.089664
0.299983 0.067358 0.099972
0.399841 0.042134 0.077350
0.298604 0.017606 0.015184
0.374641 0.097782 0.084224
0.282210 0.079677 0.091446
0.377976 0.062175 0.069813
0.297735 0.010301 0.116903
0.381368 0.020547 0.002502
0.299984 0.086528 0.079359
0.395591 0.047756 0.100601
0.295357 0.021027 0.161943
0.374017 0.024751 0.124742
0.296235 0.089791 0.139448
0.382093 0.062776 0.124517
0.300019 0.017622 0.199996
0.352797 0.011286 0.197676
0.300020 0.083829 0.188912
0.389323 0.086529 0.196162
0.172361 0.087896 0.225893
0.265002 0.082977 0.170834
0.188910 0.060448 0.226758
0.273177 0.054477 0.138296
0.166273 0.084673 0.249222
0.255315 0.073612 0.212621
0.157338 0.047221 0.248824
0.230198 0.034738 0.216267
0.325318 0.035184 0.099936
0.396572 0.028508 0.048144
0.328354 0.073906 0.084980
0.431867 0.062319 0.008981
0.327556 0.022970 0.026379
0.426804 0.023013 0.087100
0.316979 0.065883 0.008748
0.399994 0.085467 0.098561
0.346877 0.034680 0.089336
0.436601 0.034218 0.043872
0.326427 0.062254 0.049539
0.440743 0.064338 0.072666
0.327229 0.028156 0.127065
0.412442 0.051860 0.099971
0.315827 0.078121 0.116186
0.425415 0.074829 0.129697
0.358641 0.026019 0.156824
0.408565 0.032535 0.141824
0.308469 0.072491 0.154555
0.418805 0.068921 0.171690
0.313629 0.032936 0.211996
0.396432 0.029905 0.184465
0.326850 0.078439 0.208528
0.463925 0.072005 0.175094
0.200013 0.004667 0.196149
0.273385 0.099212 0.163351
0.231218 0.055966 0.201097
0.272029 0.054381 0.175802
0.168452 0.099457 0.265085
0.293948 0.009765 0.244820
0.200881 0.068815 0.256148
0.291268 0.064316 0.244442
0.300023 0.096318 0.099967
0.419965 0.003234 0.015002
0.291899 0.041245 0.099502
0.357680 0.070485 0.100900
0.302497 0.086885 0.044536
0.398650 0.002124 0.055096
0.313748 0.028994 0.060376
0.366906 0.075196 0.055823
0.300031 0.007876 0.099912
0.422885 0.089192 0.067384
0.299184 0.043995 0.075841
0.382347 0.078103 0.003395
0.294912 0.006753 0.061231
0.399961 0.094844 0.105178
0.300015 0.052996 0.101346
0.368019 0.094452 0.037294
0.334439 0.001276 0.130992
0.389897 0.096088 0.151483
0.309818 0.047421 0.150292
0.375806 0.061195 0.161386
0.321831 0.007390 0.169013
0.383554 0.018212 0.229588
0.299972 0.052987 0.198682
0.363827 0.055550 0.208384
0.244270 0.097008 0.194816
0.268816 0.015036 0.203704
0.199999 0.024549 0.197891
0.260106 0.038455 0.179753
0.209594 0.094024 0.251476
0.251815 0.098800 0.242170
0.204988 0.044026 0.241179
0.242893 0.063039 0.245706

CELL_TYPES 512
1
1
1
1
1
1
1
1
1
1
1
1
1
1
1
1
1
1
1
1
1
1
1
1
1
1
1
1
1
1
1
1
1
1
1
1
1
1
1
1
1
1
1
1
1
1
1
1
1
1
1
1
1
1
1
1
1
1
1
1
1
1
1
1
1
1
1
1
1
1
1
1
1
1
1
1
1
1
1
1
1
1
1
1
1
1
1
1
1
1
1
1
1
1
1
1
1
1
1
1
1
1
1
1
1
1
1
1
1
1
1
1
1
1
1
1
1
1
1
1
1
1
1
1
1
1
1
1
1
1
1
1
1
1
1
1
1
1
1
1
1
1
1
1
1
1
1
1
1
1
1
1
1
1
1
1
1
1
1
1
1
1
1
1
1
1
1
1
1
1
1
1
1
1
1
1
1
1
1
1
1
1
1
1
1
1
1
1
1
1
1
1
1
1
1
1
1
1
1
1
1
1
1
1
1
1
1
1
1
1
1
1
1
1
1
1
1
1
1
1
1
1
1
1
1
1
1
1
1
1
1
1
1
1
1
1
1
1
1
1
1
1
1
1
1
1
1
1
1
1
1
1
1
1
1
1
1
1
1
1
1
1
1
1
1
1
1
1
1
1
1
1
1
1
1
1
1
1
1
1
1
1
1
1
1
1
1
1
1
1
1
1
1
1
1
1
1
1
1
1
1
1
1
1
1
1
1
1
1
1
1
1
1
1
1
1
1
1
1
1
1
1
1
1
1
1
1
1
1
1
1
1
1
1
1
1
1
1
1
1
1
1
1
1
1
1
1
1
1
1
1
1
1
1
1
1
1
1
1
1
1
1
1
1
1
1
1
1
1
1
1
1
1
1
1
1
1
1
1
1
1
1
1
1
1
1
1
1
1
1
1
1
1
1
1
1
1
1
1
1
1
1
1
1
1
1
1
1
1
1
1
1
1
1
1
1
1
1
1
1
1
1
1
1
1
1
1
1
1
1
1
1
1
1
1
1
1
1
1
1
1
1
1
1
1
1
1
1
1
1
1
1
1
1
1
1
1
1
1
1
1
1
1
1
1
1
1
1
1
1
1
1
1
1
1
1
1
1
1
1
1
1
1
1
1
1
1
1
1
1
1
1
1
1
1
1
1
1
1
1
1
1
1
1
1
1
1
1
1
1
1
1

POINT_DATA 512
SCALARS radius float
LOOKUP_TABLE default
0.5
0.5
0.5
0.5
0.5
0.5
0.5
0.5
0.5
0.5
0.5
0.5
0.5
0.5
0.5
0.5
0.5
0.5
0.5
0.5
0.5
0.5
0.5
0.5
0.5
0.5
0.5
0.5
0.5
0.5
0.5
0.5
0.5
0.5
0.5
0.5
0.5
0.5
0.5
0.5
0.5
0.5
0.5
0.5
0.5
0.5
0.5
0.5
0.5
0.5
0.5
0.5
0.5
0.5
0.5
0.5
0.5
0.5
0.5
0.5
0.5
0.5
0.5
0.5
0.5
0.5
0.5
0.5
0.5
0.5
0.5
0.5
0.5
0.5
0.5
0.5
0.5
0.5
0.5
0.5
0.5
0.5
0.5
0.5
0.5
0.5
0.5
0.5
0.5
0.5
0.5
0.5
0.5
0.5
0.5
0.5
0.5
0.5
0.5
0.5
0.5
0.5
0.5
0.5
0.5
0.5
0.5
0.5
0.5
0.5
0.5
0.5
0.5
0.5
0.5
0.5
0.5
0.5
0.5
0.5
0.5
0.5
0.5
0.5
0.5
0.5
0.5
0.5
0.5
0.5
0.5
0.5
0.5
0.5
0.5
0.5
0.5
0.5
0.5
0.5
0.5
0.5
0.5
0.5
0.5
0.5
0.5
0.5
0.5
0.5
0.5
0.5
0.5
0.5
0.5
0.5
0.5
0.5
0.5
0.5
0.5
0.5
0.5
0.5
0.5
0.5
0.5
0.5
0.5
0.5
0.5
0.5
0.5
0.5
0.5
0.5
0.5
0.5
0.5
0.5
0.5
0.5
0.5
0.5
0.5
0.5
0.5
0.5
0.5
0.5
0.5
0.5
0.5
0.5
0.5
0.5
0.5
0.5
0.5
0.5
0.5
0.5
0.5
0.5
0.5
0.5
0.5
0.5
0.5
0.5
0.5
0.5
0.5
0.5
0.5
0.5
0.5
0.5
0.5
0.5
0.5
0.5
0.5
0.5
0.5
0.5
0.5
0.5
0.5
0.5
0.5
0.5
0.5
0.5
0.5
0.5
0.5
0.5
0.5
0.5
0.5
0.5
0.5
0.5
0.5
0.5
0.5
0.5
0.5
0.5
0.5
0.5
0.5
0.5
0.5
0.5
0.5
0.5
0.5
0.5
0.5
0.5
0.5
0.5
0.5
0.5
0.5
0.5
0.5
0.5
0.5
0.5
0.5
0.5
0.5
0.5
0.5
0.5
0.5
0.5
0.5
0.5
0.5
0.5
0.5
0.5
0.5
0.5
0.5
0.5
0.5
0.5
0.5
0.5
0.5
0.5
0.5
0.5
0.5
0.5
0.5
0.5
0.5
0.5
0.5
0.5
0.5
0.5
0.5
0.5
0.5
0.5
0.5
0.5
0.5
0.5
0.5
0.5
0.5
0.5
0.5
0.5
0.5
0.5
0.5
0.5
0.5
0.5
0.5
0.5
0.5
0.5
0.5
0.5
0.5
0.5
0.5
0.5
0.5
0.5
0.5
0.5
0.5
0.5
0.5
0.5
0.5
0.5
0.5
0.5
0.5
0.5
0.5
0.5
0.5
0.5
0.5
0.5
0.5
0.5
0.5
0.5
0.5
0.5
0.5
0.5
0.5
0.5
0.5
0.5
0.5
0.5
0.5
0.5
0.5
0.5
0.5
0.5
0.5
0.5
0.5
0.5
0.5
0.5
0.5
0.5
0.5
0.5
0.5
0.5
0.5
0.5
0.5
0.5
0.5
0.5
0.5
0.5
0.5
0.5
0.5
0.5
0.5
0.5
0.5
0.5
0.5
0.5
0.5
0.5
0.5
0.5
0.5
0.5
0.5
0.5
0.5
0.5
0.5
0.5
0.5
0.5
0.5
0.5
0.5
0.5
0.5
0.5
0.5
0.5
0.5
0.5
0.5
0.5
0.5
0.5
0.5
0.5
0.5
0.5
0.5
0.5
0.5
0.5
0.5
0.5
0.5
0.5
0.5
0.5
0.5
0.5
0.5
0.5
0.5
0.5
0.5
0.5
0.5
0.5
0.5
0.5
0.5
0.5
0.5
0.5
0.5
0.5
0.5
0.5
0.5
0.5
0.5
0.5
0.5
0.5
0.5
0.5
0.5
0.5
0.5
0.5
0.5
0.5
0.5
0.5
0.5
0.5
0.5
0.5
0.5
0.5
0.5
0.5
0.5
0.5
0.5
0.5
0.5
0.5
0.5
0.5
0.5
0.5
0.5
0.5
0.5
0.5
0.5
0.5
0.5
0.5
