# vtk DataFile Version 2.0
Title Data
ASCII
DATASET UNSTRUCTURED_GRID
POINTS 512 float
0.080085 0.070568 0.099998
0.064078 0.065828 0.043980
0.038830 0.098414 0.045870
0.116929 0.011292 0.006647
0.023662 0.065730 0.064563
0.002299 0.049547 0.090178
0.008222 0.011810 0.116749
0.099623 0.001530 0.099785
0.049137 0.021993 0.025945
0.011713 0.024622 0.000465
0.102163 0.088129 0.062310
0.099520 0.068429 0.064108
0.067614 0.031506 0.144795
0.101570 0.019153 0.145725
0.066414 0.076783 0.157983
0.096076 0.065820 0.144565
0.100052 0.043169 0.200026
0.017981 0.047057 0.204949
0.100021 0.006806 0.200020
0.001534 0.091965 0.199013
0.078661 0.068518 0.282272
0.046327 0.055566 0.265345
0.077087 0.016490 0.270203
0.050252 0.095218 0.274969
0.001617 0.075478 0.372714
0.054271 0.066758 0.372296
0.003136 0.016378 0.355350
0.069275 0.021388 0.354077
0.098235 0.066769 0.474453
0.059049 0.070264 0.488440
0.095485 0.017841 0.470718
0.057869 0.023777 0.483612
0.095940 0.051281 0.030754
0.100915 0.030413 0.022408
0.104288 0.098533 0.051779
0.079002 0.086643 0.034897
0.033415 0.032926 0.070741
0.031922 0.030533 0.101590
0.028831 0.074460 0.121031
0.104482 0.065252 0.099930
0.057946 0.084164 0.101641
0.119899 0.073121 0.016775
0.099982 0.032825 0.099734
0.123790 0.043714 0.013228
0.061681 0.096405 0.057429
0.092476 0.085376 0.144710
0.041380 0.010254 0.072420
0.108052 0.025546 0.131479
0.055736 0.000084 0.173890
0.084995 0.004977 0.169870
0.042326 0.095913 0.148372
0.105101 0.087646 0.166478
0.087016 0.007543 0.233596
0.014363 0.003999 0.225228
0.059851 0.061480 0.221047
0.108122 0.072475 0.220855
0.100002 0.045517 0.281223
0.067620 0.040369 0.284314
0.103401 0.092129 0.279890
0.082100 0.095278 0.299904
0.096337 0.039709 0.368618
0.018510 0.045987 0.384088
0.100041 0.079460 0.396241
0.029794 0.078879 0.410736
0.001246 0.033109 0.041660
0.069917 0.036579 0.099756
0.048897 0.096966 0.002842
0.070609 0.093511 0.012796
0.099818 0.033275 0.114314
0.099973 0.042778 0.099886
0.006126 0.083250 0.098516
0.099957 0.094628 0.099984
0.050746 0.001541 0.115587
0.099787 0.011274 0.099760
0.046486 0.054830 0.091169
0.099634 0.046708 0.117620
0.057618 0.009748 0.136192
0.097611 0.004199 0.132330
0.019423 0.055052 0.145945
0.085465 0.044747 0.155807
0.083895 0.048388 0.200936
0.094341 0.042313 0.173006
0.099775 0.075290 0.198576
0.020477 0.083636 0.184383
0.108889 0.037859 0.248273
0.035103 0.038410 0.249712
0.096262 0.089980 0.255458
0.048671 0.081340 0.256683
0.099941 0.059737 0.332158
0.039167 0.053318 0.333850
0.100876 0.090508 0.325813
0.039198 0.099680 0.327669
0.099851 0.057626 0.423833
0.062770 0.058568 0.441934
0.099966 0.095654 0.439443
0.065725 0.008296 0.435597
0.095253 0.075324 0.049673
0.099365 0.070319 0.098871
0.099983 0.094922 0.124059
0.098929 0.001948 0.064319
0.056185 0.070505 0.079725
0.099628 0.077342 0.017696
0.073693 0.098164 0.096287
0.024899 0.097985 0.101076
0.018118 0.095298 0.080697
0.097678 0.095421 0.098457
0.031061 0.045805 0.053962
0.084853 0.037266 0.054693
0.055021 0.091452 0.132947
0.087869 0.098054 0.145122
0.114295 0.048301 0.133848
0.122591 0.058740 0.143518
0.063803 0.023431 0.189365
0.003814 0.018911 0.179889
0.061522 0.064372 0.179449
0.106742 0.071717 0.170533
0.061681 0.016514 0.245220
0.100247 0.028188 0.225842
0.082352 0.076756 0.242830
0.013534 0.063098 0.228348
0.001985 0.026460 0.311944
0.054327 0.025455 0.310393
0.100046 0.070967 0.299959
0.067345 0.067768 0.319602
0.089599 0.028985 0.430421
0.045073 0.040567 0.413120
0.087970 0.095391 0.367656
0.042978 0.000876 0.378302
0.062072 0.030917 0.050958
0.157560 0.032901 0.061472
0.067841 0.078737 0.094970
0.161651 0.076340 0.123030
0.092038 0.013720 0.006941
0.159328 0.018611 0.110479
0.122593 0.087441 0.099970
0.140689 0.067288 0.099815
0.097204 0.026905 0.065506
0.139727 0.026723 0.098648
0.099513 0.082891 0.099225
0.147343 0.076083 0.011360
0.010368 0.030020 0.138209
0.136087 0.037892 0.137299
0.030461 0.081458 0.137443
0.137646 0.089737 0.138047
0.099750 0.052028 0.181340
0.141338 0.055258 0.189412
0.100306 0.004777 0.187879
0.142747 0.009316 0.180976
0.003761 0.074413 0.258685
0.124842 0.068026 0.258847
0.009918 0.019818 0.258765
0.125918 0.013524 0.263171
0.037615 0.084346 0.351857
0.127970 0.079344 0.356365
0.041614 0.035097 0.352584
0.121991 0.020428 0.357576
0.019971 0.094743 0.487623
0.101271 0.090920 0.476163
0.019887 0.043218 0.489441
0.099647 0.043217 0.462314
0.099985 0.082089 0.126424
0.138164 0.080548 0.045348
0.115874 0.031967 0.051547
0.128755 0.018104 0.096995
0.035381 0.081843 0.082470
0.142580 0.080159 0.086825
0.029888 0.051139 0.119424
0.143650 0.037701 0.100404
0.103854 0.092663 0.045267
0.136892 0.090960 0.099831
0.037814 0.063855 0.100257
0.064737 0.053649 0.083904
0.015047 0.089156 0.035975
0.099818 0.093260 0.078974
0.009831 0.057068 0.020893
0.096439 0.055748 0.073152
0.040593 0.038018 0.166573
0.021366 0.013979 0.160991
0.100333 0.094002 0.145752
0.127013 0.096336 0.163227
0.040832 0.032609 0.207670
0.049096 0.011621 0.202790
0.058724 0.091017 0.212417
0.048655 0.074909 0.208533
0.026482 0.056096 0.292778
0.127575 0.042150 0.285211
0.031179 0.012545 0.287037
0.100876 0.010822 0.299692
0.063406 0.030259 0.393958
0.098615 0.052764 0.394326
0.071018 0.093305 0.409587
0.069884 0.074696 0.399293
0.085659 0.007551 0.041298
0.139737 0.007033 0.051684
0.105507 0.054736 0.054092
0.145824 0.048328 0.033290
0.063217 0.008294 0.090742
0.142852 0.003528 0.097787
0.126405 0.047897 0.087248
0.157056 0.054507 0.060905
0.099987 0.022186 0.099335
0.139505 0.028023 0.045435
0.100054 0.071102 0.115891
0.138715 0.070316 0.056071
0.056044 0.032363 0.136226
0.135651 0.008045 0.134552
0.068615 0.063862 0.136296
0.099953 0.052772 0.099896
0.047519 0.052616 0.177203
0.135891 0.061473 0.171917
0.091718 0.092506 0.199974
0.138098 0.092445 0.178682
0.089084 0.055323 0.246135
0.099988 0.060847 0.199983
0.111813 0.094983 0.233950
0.100015 0.094025 0.200000
0.083020 0.064476 0.357359
0.114978 0.060513 0.336955
0.073535 0.090725 0.333776
0.105545 0.005670 0.332084
0.027231 0.068835 0.451496
0.106191 0.077288 0.434726
0.047666 0.096937 0.451719
0.124155 0.006826 0.431670
0.121266 0.096883 0.099918
0.141955 0.099785 0.025968
0.062512 0.047933 0.019082
0.140901 0.049556 0.075490
0.056432 0.093784 0.094734
0.161647 0.095894 0.079283
0.052639 0.033724 0.099394
0.155580 0.059680 0.108201
0.067647 0.031588 0.097798
0.134527 0.099681 0.072263
0.046892 0.081417 0.051215
0.137270 0.051651 0.100011
0.099988 0.099221 0.099962
0.009037 0.018341 0.055221
0.057249 0.057380 0.133983
0.040939 0.066224 0.033832
0.109142 0.026287 0.170580
0.135132 0.034633 0.175785
0.060075 0.086135 0.175128
0.017520 0.073132 0.165256
0.100028 0.027221 0.202642
0.064749 0.038888 0.232493
0.099978 0.082737 0.200027
0.042719 0.093832 0.234995
0.086447 0.039227 0.327047
0.100030 0.034055 0.299994
0.034268 0.080155 0.302734
0.123297 0.075865 0.300859
0.022187 0.030515 0.444024
0.107208 0.035942 0.399975
0.011984 0.009647 0.402466
0.099991 0.010390 0.397930
0.200037 0.047253 0.100029
0.286961 0.068471 0.072950
0.208679 0.010677 0.099873
0.276816 0.017553 0.072182
0.210076 0.048650 0.008831
0.271462 0.055645 0.043019
0.207332 0.091979 0.099319
0.277949 0.096542 0.045756
0.185858 0.059024 0.095148
0.265831 0.074694 0.099964
0.200012 0.099138 0.099232
0.262842 0.019317 0.007692
0.196694 0.056099 0.133863
0.266549 0.069109 0.118768
0.188453 0.007755 0.135751
0.267116 0.012822 0.122435
0.178224 0.040174 0.165133
0.242795 0.057166 0.140298
0.173961 0.098263 0.163058
0.244395 0.089787 0.137091
0.159163 0.057988 0.229856
0.216861 0.050963 0.172755
0.136224 0.092655 0.232563
0.219108 0.100000 0.170264
0.177779 0.080414 0.351161
0.255444 0.078575 0.362628
0.166467 0.017103 0.354682
0.241298 0.024798 0.364574
0.150169 0.076023 0.464339
0.206318 0.078511 0.452112
0.142738 0.030838 0.465504
0.099992 0.021670 0.505304
0.176092 0.008658 0.053519
0.238631 0.007100 0.072626
0.147366 0.091334 0.049135
0.225371 0.059980 0.059027
0.171568 0.003046 0.092894
0.228312 0.004641 0.009211
0.175673 0.086132 0.074099
0.228613 0.075365 0.099313
0.173652 0.036605 0.025859
0.211997 0.033287 0.038281
0.150825 0.090879 0.096410
0.215728 0.088389 0.053869
0.161421 0.016115 0.005598
0.213636 0.013743 0.038978
0.175586 0.094880 0.118336
0.214701 0.072463 0.038533
0.144203 0.098432 0.137344
0.208599 0.023819 0.135633
0.138849 0.065624 0.140901
0.201467 0.078374 0.137931
0.143143 0.026822 0.197748
0.178531 0.017448 0.172320
0.143167 0.079783 0.192014
0.174567 0.054017 0.176858
0.163553 0.053016 0.293412
0.204556 0.045668 0.299320
0.146760 0.005215 0.289497
0.183588 0.011973 0.297514
0.137017 0.038851 0.381209
0.195326 0.043873 0.373058
0.127328 0.088222 0.392388
0.196339 0.012338 0.397681
0.201905 0.048648 0.067538
0.258284 0.034622 0.100041
0.199984 0.070655 0.099944
0.262731 0.088563 0.094620
0.174021 0.041866 0.089355
0.255621 0.038173 0.029888
0.186314 0.091658 0.018878
0.261975 0.083350 0.044952
0.181402 0.058797 0.034310
0.253088 0.054571 0.097027
0.205184 0.094343 0.067860
0.244868 0.095549 0.100401
0.173449 0.054972 0.132284
0.222099 0.055939 0.102403
0.183232 0.092023 0.133277
0.221902 0.094250 0.113564
0.155054 0.041765 0.144012
0.239621 0.030752 0.131734
0.172351 0.081399 0.161538
0.219296 0.089991 0.152897
0.132737 0.039667 0.235671
0.180057 0.046828 0.207324
0.152182 0.092628 0.205655
0.197043 0.086636 0.189604
0.152906 0.058266 0.360380
0.223075 0.058572 0.337369
0.144650 0.000319 0.327694
0.208590 0.008586 0.337705
0.142242 0.066012 0.420894
0.185724 0.070624 0.410718
0.165875 0.005189 0.433096
0.219456 0.003459 0.414136
0.191454 0.021431 0.054121
0.249818 0.018844 0.061562
0.181429 0.064146 0.058032
0.249513 0.074842 0.073938
0.185868 0.017919 0.099958
0.233199 0.028800 0.098547
0.178118 0.075460 0.094925
0.235192 0.062832 0.009071
0.184190 0.028219 0.093146
0.214052 0.030652 0.092560
0.179647 0.086567 0.047228
0.199985 0.084581 0.099948
0.183718 0.034917 0.128499
0.239696 0.042795 0.057287
0.174433 0.073541 0.006662
0.238613 0.090505 0.035241
0.150898 0.022342 0.147183
0.218697 0.024392 0.150230
0.149661 0.078939 0.145068
0.214601 0.065859 0.147687
0.139669 0.018991 0.219244
0.189477 0.010029 0.197071
0.139655 0.065360 0.217797
0.179685 0.075939 0.177154
0.137586 0.037777 0.321744
0.182121 0.042947 0.327908
0.155303 0.078611 0.315995
0.199230 0.079180 0.306216
0.158807 0.037084 0.405290
0.224570 0.047645 0.403313
0.156590 0.095381 0.386940
0.210784 0.081406 0.377727
0.378768 0.074608 0.000631
0.478263 0.067090 0.096067
0.360582 0.017395 0.001468
0.473817 0.020612 0.096187
0.379674 0.067024 0.052438
0.493436 0.070689 0.060916
0.358602 0.022403 0.069690
0.488590 0.023784 0.059849
0.357283 0.084004 0.035795
0.494236 0.094745 0.022184
0.359031 0.034986 0.040490
0.494985 0.043260 0.022132
0.365020 0.080193 0.127856
0.483176 0.091488 0.105971
0.361766 0.021732 0.121496
0.464921 0.043745 0.114908
0.358136 0.080100 0.177855
0.469911 0.072906 0.151743
0.362082 0.017577 0.165495
0.507268 0.027322 0.099987
0.369284 0.078864 0.253081
0.457737 0.079131 0.216905
0.370125 0.025555 0.241204
0.491275 0.023899 0.149565
0.227052 0.046767 0.216006
0.268671 0.071859 0.211767
0.203283 0.004242 0.220010
0.293362 0.009217 0.215670
0.220363 0.064573 0.273926
0.271852 0.063010 0.284865
0.224655 0.006554 0.283887
0.272515 0.015874 0.279226
0.285052 0.044745 0.095647
0.375411 0.039141 0.096083
0.292274 0.091715 0.099970
0.400456 0.090052 0.100011
0.290903 0.041480 0.062877
0.390516 0.045438 0.018173
0.301373 0.095261 0.073060
0.415511 0.078155 0.031306
0.299388 0.056062 0.021598
0.399752 0.026377 0.060480
0.294244 0.012847 0.025894
0.417984 0.090389 0.061384
0.296784 0.042813 0.121259
0.398783 0.050972 0.091187
0.299508 0.007718 0.099435
0.404668 0.071897 0.080167
0.298327 0.053620 0.164913
0.387633 0.039549 0.132817
0.295694 0.007374 0.143947
0.398753 0.092239 0.124700
0.300013 0.049067 0.203397
0.379311 0.044793 0.196418
0.303580 0.012117 0.183507
0.399307 0.008933 0.196089
0.174755 0.024243 0.225038
0.257105 0.013711 0.161524
0.175375 0.087907 0.222435
0.276572 0.080639 0.143950
0.163126 0.012290 0.253540
0.248132 0.007910 0.215988
0.146152 0.079363 0.264193
0.225105 0.066983 0.228971
0.338962 0.059669 0.098918
0.426654 0.058970 0.099601
0.334347 0.091777 0.100070
0.444127 0.095879 0.099370
0.340063 0.054397 0.037319
0.448020 0.057546 0.065841
0.333001 0.000367 0.036763
0.442251 0.008538 0.072713
0.364048 0.065771 0.081198
0.457197 0.069697 0.028698
0.339587 0.092238 0.071739
0.456670 0.098591 0.046069
0.344634 0.062530 0.115674
0.441250 0.078828 0.107999
0.335409 0.004441 0.107461
0.441227 0.006473 0.128353
0.367447 0.058511 0.152603
0.425078 0.069469 0.144768
0.333962 0.000418 0.145803
0.440746 0.007139 0.168986
0.343072 0.059135 0.220701
0.417837 0.071000 0.188313
0.344878 0.008970 0.208074
0.422941 0.002453 0.234139
0.200005 0.039767 0.200016
0.271685 0.044355 0.154094
0.231309 0.088084 0.196944
0.269161 0.091857 0.179288
0.162575 0.045488 0.266284
0.267153 0.045512 0.242417
0.186815 0.090056 0.263902
0.276777 0.088522 0.247990
0.318689 0.025440 0.099522
0.430946 0.026785 0.090258
0.303002 0.070033 0.099853
0.372889 0.094176 0.086531
0.316417 0.026540 0.051098
0.420471 0.041871 0.046525
0.325408 0.068880 0.064533
0.381136 0.099680 0.041907
0.334397 0.038461 0.082500
0.449558 0.031800 0.022815
0.308000 0.080103 0.031137
0.408088 0.009899 0.013373
0.306789 0.035298 0.099953
0.417571 0.037427 0.120370
0.306982 0.077991 0.122867
0.398941 0.008894 0.099114
0.328208 0.039071 0.138672
0.410151 0.037239 0.162978
0.323322 0.078597 0.153657
0.394213 0.095657 0.156686
0.335059 0.042398 0.179991
0.409161 0.047780 0.226762
0.313514 0.081748 0.196742
0.387846 0.085106 0.208434
0.228248 0.027204 0.185582
0.266314 0.037853 0.193892
0.200036 0.074121 0.200027
0.245706 0.068399 0.176735
0.199093 0.033724 0.253682
0.236805 0.026263 0.249640
0.186569 0.068189 0.240864
0.232873 0.086328 0.245364

CELL_TYPES 512
1
1
1
1
1
1
1
1
1
1
1
1
1
1
1
1
1
1
1
1
1
1
1
1
1
1
1
1
1
1
1
1
1
1
1
1
1
1
1
1
1
1
1
1
1
1
1
1
1
1
1
1
1
1
1
1
1
1
1
1
1
1
1
1
1
1
1
1
1
1
1
1
1
1
1
1
1
1
1
1
1
1
1
1
1
1
1
1
1
1
1
1
1
1
1
1
1
1
1
1
1
1
1
1
1
1
1
1
1
1
1
1
1
1
1
1
1
1
1
1
1
1
1
1
1
1
1
1
1
1
1
1
1
1
1
1
1
1
1
1
1
1
1
1
1
1
1
1
1
1
1
1
1
1
1
1
1
1
1
1
1
1
1
1
1
1
1
1
1
1
1
1
1
1
1
1
1
1
1
1
1
1
1
1
1
1
1
1
1
1
1
1
1
1
1
1
1
1
1
1
1
1
1
1
1
1
1
1
1
1
1
1
1
1
1
1
1
1
1
1
1
1
1
1
1
1
1
1
1
1
1
1
1
1
1
1
1
1
1
1
1
1
1
1
1
1
1
1
1
1
1
1
1
1
1
1
1
1
1
1
1
1
1
1
1
1
1
1
1
1
1
1
1
1
1
1
1
1
1
1
1
1
1
1
1
1
1
1
1
1
1
1
1
1
1
1
1
1
1
1
1
1
1
1
1
1
1
1
1
1
1
1
1
1
1
1
1
1
1
1
1
1
1
1
1
1
1
1
1
1
1
1
1
1
1
1
1
1
1
1
1
1
1
1
1
1
1
1
1
1
1
1
1
1
1
1
1
1
1
1
1
1
1
1
1
1
1
1
1
1
1
1
1
1
1
1
1
1
1
1
1
1
1
1
1
1
1
1
1
1
1
1
1
1
1
1
1
1
1
1
1
1
1
1
1
1
1
1
1
1
1
1
1
1
1
1
1
1
1
1
1
1
1
1
1
1
1
1
1
1
1
1
1
1
1
1
1
1
1
1
1
1
1
1
1
1
1
1
1
1
1
1
1
1
1
1
1
1
1
1
1
1
1
1
1
1
1
1
1
1
1
1
1
1
1
1
1
1
1
1
1
1
1
1
1
1
1
1
1
1
1
1
1
1
1
1
1
1
1
1
1
1
1
1
1
1
1
1
1
1
1
1

POINT_DATA 512
SCALARS radius float
LOOKUP_TABLE default
0.5
0.5
0.5
0.5
0.5
0.5
0.5
0.5
0.5
0.5
0.5
0.5
0.5
0.5
0.5
0.5
0.5
0.5
0.5
0.5
0.5
0.5
0.5
0.5
0.5
0.5
0.5
0.5
0.5
0.5
0.5
0.5
0.5
0.5
0.5
0.5
0.5
0.5
0.5
0.5
0.5
0.5
0.5
0.5
0.5
0.5
0.5
0.5
0.5
0.5
0.5
0.5
0.5
0.5
0.5
0.5
0.5
0.5
0.5
0.5
0.5
0.5
0.5
0.5
0.5
0.5
0.5
0.5
0.5
0.5
0.5
0.5
0.5
0.5
0.5
0.5
0.5
0.5
0.5
0.5
0.5
0.5
0.5
0.5
0.5
0.5
0.5
0.5
0.5
0.5
0.5
0.5
0.5
0.5
0.5
0.5
0.5
0.5
0.5
0.5
0.5
0.5
0.5
0.5
0.5
0.5
0.5
0.5
0.5
0.5
0.5
0.5
0.5
0.5
0.5
0.5
0.5
0.5
0.5
0.5
0.5
0.5
0.5
0.5
0.5
0.5
0.5
0.5
0.5
0.5
0.5
0.5
0.5
0.5
0.5
0.5
0.5
0.5
0.5
0.5
0.5
0.5
0.5
0.5
0.5
0.5
0.5
0.5
0.5
0.5
0.5
0.5
0.5
0.5
0.5
0.5
0.5
0.5
0.5
0.5
0.5
0.5
0.5
0.5
0.5
0.5
0.5
0.5
0.5
0.5
0.5
0.5
0.5
0.5
0.5
0.5
0.5
0.5
0.5
0.5
0.5
0.5
0.5
0.5
0.5
0.5
0.5
0.5
0.5
0.5
0.5
0.5
0.5
0.5
0.5
0.5
0.5
0.5
0.5
0.5
0.5
0.5
0.5
0.5
0.5
0.5
0.5
0.5
0.5
0.5
0.5
0.5
0.5
0.5
0.5
0.5
0.5
0.5
0.5
0.5
0.5
0.5
0.5
0.5
0.5
0.5
0.5
0.5
0.5
0.5
0.5
0.5
0.5
0.5
0.5
0.5
0.5
0.5
0.5
0.5
0.5
0.5
0.5
0.5
0.5
0.5
0.5
0.5
0.5
0.5
0.5
0.5
0.5
0.5
0.5
0.5
0.5
0.5
0.5
0.5
0.5
0.5
0.5
0.5
0.5
0.5
0.5
0.5
0.5
0.5
0.5
0.5
0.5
0.5
0.5
0.5
0.5
0.5
0.5
0.5
0.5
0.5
0.5
0.5
0.5
0.5
0.5
0.5
0.5
0.5
0.5
0.5
0.5
0.5
0.5
0.5
0.5
0.5
0.5
0.5
0.5
0.5
0.5
0.5
0.5
0.5
0.5
0.5
0.5
0.5
0.5
0.5
0.5
0.5
0.5
0.5
0.5
0.5
0.5
0.5
0.5
0.5
0.5
0.5
0.5
0.5
0.5
0.5
0.5
0.5
0.5
0.5
0.5
0.5
0.5
0.5
0.5
0.5
0.5
0.5
0.5
0.5
0.5
0.5
0.5
0.5
0.5
0.5
0.5
0.5
0.5
0.5
0.5
0.5
0.5
0.5
0.5
0.5
0.5
0.5
0.5
0.5
0.5
0.5
0.5
0.5
0.5
0.5
0.5
0.5
0.5
0.5
0.5
0.5
0.5
0.5
0.5
0.5
0.5
0.5
0.5
0.5
0.5
0.5
0.5
0.5
0.5
0.5
0.5
0.5
0.5
0.5
0.5
0.5
0.5
0.5
0.5
0.5
0.5
0.5
0.5
0.5
0.5
0.5
0.5
0.5
0.5
0.5
0.5
0.5
0.5
0.5
0.5
0.5
0.5
0.5
0.5
0.5
0.5
0.5
0.5
0.5
0.5
0.5
0.5
0.5
0.5
0.5
0.5
0.5
0.5
0.5
0.5
0.5
0.5
0.5
0.5
0.5
0.5
0.5
0.5
0.5
0.5
0.5
0.5
0.5
0.5
0.5
0.5
0.5
0.5
0.5
0.5
0.5
0.5
0.5
0.5
0.5
0.5
0.5
0.5
0.5
0.5
0.5
0.5
0.5
0.5
0.5
0.5
0.5
0.5
0.5
0.5
0.5
0.5
0.5
0.5
0.5
0.5
0.5
0.5
0.5
0.5
0.5
0.5
0.5
0.5
0.5
0.5
0.5
0.5
0.5
0.5
0.5
0.5
0.5
0.5
0.5
0.5
0.5
0.5
0.5
0.5
0.5
0.5
0.5
0.5
0.5
0.5
0.5
0.5
0.5
