# vtk DataFile Version 2.0
Title Data
ASCII
DATASET UNSTRUCTURED_GRID
POINTS 512 float
0.097153 0.008109 0.061768
0.097730 0.002071 0.072876
0.068668 0.050206 0.079775
0.100111 0.065749 0.062813
0.070331 0.099815 0.097405
0.052434 0.093377 0.029441
0.063362 0.060778 0.102151
0.018409 0.060785 0.033046
0.081494 0.068235 0.060544
0.041585 0.079517 0.039378
0.099941 0.024246 0.099913
0.045767 0.011291 0.098313
0.097694 0.086534 0.141546
0.030237 0.078869 0.132180
0.098637 0.015153 0.138650
0.043331 0.008313 0.133757
0.099952 0.088315 0.199954
0.050463 0.092208 0.201188
0.100007 0.058604 0.200013
0.040851 0.040576 0.191701
0.096190 0.007752 0.275356
0.066084 0.098271 0.268301
0.095196 0.059589 0.265692
0.067254 0.046214 0.270139
0.037233 0.013042 0.374077
0.081397 0.010602 0.376734
0.036170 0.063483 0.355451
0.086764 0.068348 0.364827
0.014916 0.011413 0.468091
0.079550 0.015510 0.481076
0.012263 0.069510 0.467925
0.080828 0.070184 0.477049
0.099680 0.092016 0.089348
0.018743 0.076325 0.071813
0.099903 0.047613 0.097643
0.099970 0.029694 0.078687
0.073040 0.082741 0.016250
0.064535 0.074094 0.041748
0.074053 0.016451 0.100133
0.025019 0.012096 0.036615
0.087245 0.026756 0.045901
0.011929 0.018208 0.062569
0.096797 0.088856 0.041952
0.100018 0.092178 0.066980
0.099583 0.034056 0.099379
0.099905 0.027732 0.123450
0.076463 0.063610 0.100001
0.099987 0.076086 0.120006
0.079969 0.060871 0.162365
0.003017 0.056929 0.151383
0.079259 0.039860 0.141974
0.012315 0.030430 0.149836
0.093656 0.057200 0.218427
0.044734 0.052947 0.217716
0.087661 0.003802 0.200116
0.027817 0.013953 0.208795
0.024107 0.087075 0.287554
0.087767 0.089778 0.289651
0.021309 0.042349 0.285303
0.092264 0.044606 0.296261
0.017747 0.079824 0.378547
0.048935 0.087518 0.391535
0.014423 0.023750 0.404579
0.055977 0.022892 0.413687
0.050260 0.083294 0.062920
0.093152 0.084156 0.055759
0.076081 0.045982 0.050583
0.096035 0.041472 0.062306
0.054916 0.086537 0.106062
0.003420 0.081470 0.014758
0.057915 0.040066 0.100934
0.010074 0.044947 0.012473
0.084419 0.059244 0.006700
0.029592 0.073834 0.102822
0.082558 0.097226 0.040878
0.035443 0.096749 0.102815
0.091954 0.061406 0.133250
0.043620 0.058290 0.131280
0.060052 0.096171 0.137954
0.000369 0.090911 0.133834
0.098320 0.091937 0.166136
0.033394 0.089331 0.167726
0.099598 0.020024 0.170368
0.050726 0.033051 0.176841
0.017866 0.082666 0.249257
0.064486 0.085030 0.244646
0.005081 0.032246 0.247004
0.063633 0.032127 0.246046
0.030765 0.002179 0.340591
0.064157 0.095864 0.344879
0.025988 0.041733 0.336086
0.064216 0.045694 0.332887
0.021888 0.001904 0.425498
0.086877 0.000623 0.437208
0.026204 0.045493 0.442354
0.085868 0.053731 0.432680
0.099312 0.099687 0.096311
0.020360 0.009817 0.102420
0.003128 0.032882 0.101192
0.043678 0.053235 0.094175
0.097145 0.009939 0.020455
0.037449 0.022750 0.062718
0.100741 0.054294 0.045581
0.053569 0.050436 0.039615
0.064364 0.046114 0.099641
0.023487 0.048175 0.103440
0.062037 0.093800 0.094137
0.006596 0.083332 0.094312
0.089579 0.041255 0.129411
0.015594 0.047957 0.131917
0.099994 0.094257 0.125382
0.030656 0.094855 0.131744
0.085887 0.073385 0.176287
0.046862 0.063018 0.171485
0.091346 0.099091 0.160470
0.024359 0.010980 0.161508
0.086864 0.069228 0.241549
0.038217 0.077110 0.220884
0.097439 0.019465 0.238787
0.048168 0.005485 0.225339
0.029458 0.074826 0.318655
0.073334 0.073798 0.317471
0.012927 0.018409 0.307864
0.088701 0.013625 0.321173
0.009936 0.076609 0.420712
0.066552 0.085820 0.416839
0.007133 0.045193 0.376761
0.063674 0.048861 0.380484
0.089316 0.078938 0.078709
0.140031 0.085687 0.099034
0.100088 0.099706 0.099095
0.136160 0.014020 0.102800
0.036634 0.063567 0.052526
0.132233 0.079129 0.024015
0.099340 0.021186 0.037541
0.130553 0.011709 0.037863
0.036352 0.077359 0.005538
0.129996 0.081388 0.051136
0.028701 0.026992 0.015151
0.138672 0.018344 0.061316
0.052686 0.080925 0.132942
0.128499 0.088061 0.129528
0.061696 0.023951 0.135197
0.128055 0.033653 0.132141
0.041780 0.097781 0.180010
0.123346 0.098133 0.177213
0.028512 0.058140 0.184332
0.126810 0.058569 0.171356
0.036709 0.013290 0.257757
0.108417 0.011965 0.252976
0.042907 0.063722 0.259337
0.115582 0.058993 0.257332
0.064542 0.028118 0.363692
0.127489 0.022976 0.364322
0.064460 0.078044 0.358363
0.123509 0.071136 0.362877
0.047284 0.037001 0.486860
0.111253 0.031361 0.473897
0.049251 0.082619 0.486822
0.107876 0.082737 0.464332
0.046508 0.025268 0.111571
0.126593 0.022621 0.067331
0.034953 0.089853 0.082315
0.112572 0.074143 0.099974
0.069804 0.023418 0.021773
0.117143 0.026263 0.001571
0.072031 0.094869 0.100046
0.120405 0.075929 0.099965
0.037550 0.042120 0.070205
0.114346 0.034067 0.099989
0.065133 0.002622 0.049195
0.099925 0.098974 0.100348
0.059103 0.036816 0.065308
0.045516 0.038850 0.028318
0.048515 0.096311 0.057050
0.031212 0.095576 0.023843
0.069419 0.084116 0.156586
0.053407 0.066218 0.149487
0.046984 0.039608 0.135232
0.102615 0.048313 0.147365
0.067814 0.082601 0.196950
0.076223 0.065810 0.196483
0.089149 0.037243 0.200162
0.075496 0.019414 0.200379
0.054892 0.097790 0.299897
0.119202 0.091085 0.285848
0.052013 0.054855 0.296653
0.106240 0.050715 0.297809
0.093369 0.074342 0.399062
0.095677 0.091638 0.394304
0.094991 0.040026 0.408962
0.095205 0.018750 0.399630
0.009200 0.056131 0.083792
0.136608 0.058644 0.091830
0.039468 0.098803 0.085318
0.140152 0.095270 0.066636
0.098620 0.072103 0.025131
0.131266 0.058108 0.039574
0.099756 0.097086 0.038119
0.134375 0.096077 0.100012
0.099894 0.072017 0.100068
0.134351 0.078016 0.075032
0.098791 0.008708 0.099747
0.128924 0.006148 0.098501
0.084833 0.079080 0.135221
0.124489 0.059417 0.127436
0.099276 0.002902 0.127161
0.100025 0.093453 0.100044
0.071542 0.097189 0.168887
0.119350 0.098184 0.154687
0.098489 0.042736 0.170348
0.121266 0.038794 0.167221
0.096510 0.094156 0.234268
0.099987 0.098726 0.203159
0.015053 0.048300 0.227890
0.100110 0.040745 0.201034
0.098036 0.004550 0.371836
0.111119 0.099302 0.351171
0.093938 0.041197 0.340706
0.107049 0.048928 0.343328
0.058107 0.013098 0.449958
0.112648 0.015672 0.433029
0.072642 0.049709 0.448683
0.127685 0.053974 0.436532
0.100588 0.046775 0.058484
0.129002 0.051275 0.061771
0.096342 0.095215 0.063909
0.127387 0.097736 0.100002
0.100428 0.047693 0.015259
0.128303 0.048110 0.010331
0.091063 0.084358 0.003781
0.129728 0.095449 0.023413
0.097831 0.079483 0.100005
0.114226 0.050559 0.100033
0.069371 0.019294 0.096419
0.127036 0.096337 0.054999
0.099979 0.047006 0.104405
0.057818 0.079923 0.084887
0.079602 0.097885 0.131462
0.058846 0.005743 0.066269
0.008748 0.074217 0.164777
0.115502 0.084645 0.166289
0.077769 0.027687 0.165758
0.055995 0.022535 0.160293
0.007211 0.080972 0.201905
0.090289 0.081005 0.226002
0.100098 0.021755 0.200894
0.068932 0.036079 0.230275
0.098508 0.087938 0.337169
0.099476 0.083222 0.319406
0.060089 0.023141 0.312035
0.121079 0.021864 0.311228
0.050968 0.080079 0.442098
0.117041 0.084660 0.418434
0.045410 0.054258 0.403697
0.099371 0.055307 0.398294
0.199956 0.087562 0.100024
0.276420 0.008082 0.095652
0.199977 0.057195 0.100045
0.267280 0.059588 0.093591
0.201447 0.092413 0.050059
0.268673 0.097740 0.065200
0.192151 0.040377 0.038803
0.270954 0.046062 0.065892
0.180459 0.097088 0.038308
0.259094 0.013393 0.035419
0.186618 0.057896 0.025487
0.260187 0.063667 0.042128
0.178813 0.097165 0.123698
0.254909 0.013359 0.108501
0.173744 0.057540 0.127409
0.257750 0.059874 0.116472
0.158725 0.089022 0.154806
0.227604 0.099531 0.148906
0.157098 0.047136 0.152736
0.230479 0.039789 0.135845
0.153124 0.099313 0.221964
0.200985 0.095942 0.166262
0.132225 0.041812 0.229229
0.206446 0.053330 0.166739
0.183311 0.022347 0.363343
0.262437 0.023072 0.371051
0.169529 0.066254 0.357747
0.248558 0.069667 0.369667
0.166329 0.018647 0.466300
0.220658 0.021933 0.456916
0.149459 0.074213 0.467058
0.123376 0.065162 0.505639
0.158634 0.064435 0.085638
0.220372 0.056379 0.092555
0.141858 0.038437 0.086827
0.199992 0.001556 0.090262
0.151783 0.056560 0.000911
0.218099 0.053421 0.043831
0.154053 0.030758 0.008174
0.208959 0.014070 0.025506
0.158175 0.083837 0.068206
0.197340 0.083107 0.066700
0.134402 0.039243 0.043403
0.199588 0.036600 0.085504
0.154710 0.066615 0.049932
0.197735 0.065820 0.075266
0.152599 0.047442 0.103555
0.200565 0.017484 0.070626
0.135827 0.057515 0.134629
0.188879 0.076277 0.126967
0.129543 0.007725 0.132767
0.184947 0.022597 0.122921
0.127970 0.076429 0.185472
0.163930 0.063921 0.161695
0.126140 0.022340 0.180354
0.161164 0.095460 0.165458
0.160560 0.092397 0.302095
0.208202 0.092514 0.302566
0.147847 0.051364 0.289115
0.190166 0.057500 0.303722
0.136475 0.081224 0.386578
0.199506 0.087528 0.382166
0.131592 0.035960 0.394843
0.198679 0.056201 0.399031
0.167292 0.091109 0.096979
0.249725 0.082748 0.014893
0.171417 0.018557 0.099019
0.247575 0.031399 0.003366
0.165680 0.089610 0.032002
0.245647 0.085223 0.061789
0.175002 0.035573 0.050558
0.247537 0.032457 0.063099
0.167031 0.097883 0.069866
0.233931 0.093188 0.099309
0.171367 0.045173 0.094879
0.228713 0.047903 0.013438
0.154393 0.097331 0.120302
0.209155 0.099569 0.100000
0.166930 0.037055 0.121979
0.208481 0.046433 0.105885
0.139896 0.088893 0.138919
0.231299 0.083385 0.130055
0.156798 0.022478 0.152964
0.201423 0.036699 0.143095
0.130016 0.084874 0.231270
0.174488 0.087633 0.187995
0.142116 0.039470 0.198537
0.185130 0.031904 0.178807
0.154927 0.000975 0.362596
0.227939 0.003188 0.346286
0.144066 0.048910 0.341238
0.214208 0.053341 0.348748
0.150041 0.012084 0.423784
0.194568 0.012502 0.420998
0.170435 0.051993 0.434011
0.241517 0.048287 0.420183
0.178261 0.071492 0.083035
0.241294 0.068264 0.087775
0.160963 0.099365 0.092716
0.239936 0.020701 0.097130
0.171187 0.063274 0.044602
0.221576 0.076961 0.036296
0.161706 0.010132 0.022424
0.226260 0.005840 0.046692
0.164381 0.074748 0.005328
0.202030 0.080948 0.004999
0.164432 0.029041 0.075807
0.200766 0.021849 0.100014
0.167355 0.083877 0.115710
0.231247 0.082929 0.082241
0.163071 0.022381 0.052849
0.229436 0.034966 0.066411
0.141481 0.071167 0.141370
0.201232 0.074799 0.143644
0.140551 0.021212 0.137617
0.197027 0.007976 0.138512
0.137721 0.074049 0.201521
0.173213 0.063718 0.178973
0.137254 0.006725 0.200320
0.164781 0.019948 0.170143
0.138166 0.084791 0.326876
0.186773 0.085768 0.336673
0.159202 0.026201 0.322530
0.199903 0.025735 0.321145
0.167154 0.083775 0.407071
0.238112 0.093429 0.410093
0.164494 0.042189 0.389277
0.219110 0.026538 0.386935
0.377998 0.011427 0.035295
0.469953 0.011668 0.013707
0.357241 0.065868 0.034408
0.470763 0.069779 0.010826
0.378516 0.010231 0.078633
0.483885 0.015486 0.079146
0.366758 0.068336 0.086783
0.480292 0.070268 0.080676
0.365530 0.028605 0.062355
0.489667 0.037324 0.046037
0.361111 0.077638 0.063055
0.489510 0.082869 0.048360
0.366887 0.023853 0.126658
0.476262 0.031810 0.110771
0.364326 0.071590 0.123715
0.464331 0.083279 0.107916
0.365498 0.022361 0.182826
0.468667 0.018175 0.165893
0.359642 0.066157 0.168911
0.501060 0.071411 0.121012
0.372885 0.023355 0.261334
0.459735 0.022285 0.220133
0.371555 0.069748 0.247774
0.513040 0.068745 0.165151
0.221387 0.093367 0.216749
0.271176 0.009484 0.216218
0.200954 0.052866 0.222936
0.284209 0.057754 0.222309
0.217403 0.007007 0.273557
0.273649 0.006202 0.279884
0.224049 0.056332 0.281086
0.274427 0.060125 0.276055
0.288282 0.087458 0.022165
0.381187 0.079826 0.015158
0.286369 0.041943 0.020211
0.407797 0.025772 0.012809
0.291324 0.090302 0.086024
0.394369 0.087037 0.048539
0.296939 0.045724 0.091803
0.415965 0.023014 0.055338
0.301501 0.098296 0.052933
0.402319 0.074962 0.092229
0.298689 0.055660 0.049911
0.413248 0.038066 0.091857
0.287955 0.090341 0.118326
0.395736 0.091749 0.095306
0.299626 0.050178 0.104249
0.399990 0.022148 0.097581
0.302755 0.093298 0.160207
0.388616 0.081518 0.135423
0.291242 0.052943 0.146593
0.397145 0.036142 0.131055
0.303451 0.093611 0.207419
0.384152 0.087545 0.198788
0.304433 0.057800 0.189140
0.400982 0.055195 0.199190
0.169841 0.069273 0.214880
0.247240 0.062865 0.156823
0.169178 0.037407 0.213341
0.264638 0.023819 0.139485
0.155673 0.063520 0.249355
0.235825 0.057835 0.226538
0.139957 0.021993 0.260380
0.224412 0.011171 0.230265
0.342554 0.002627 0.027995
0.426647 0.002192 0.020510
0.339659 0.041840 0.024990
0.444825 0.045983 0.024637
0.346692 0.096474 0.062499
0.439366 0.001299 0.086325
0.334131 0.045792 0.062585
0.436562 0.054293 0.086130
0.374694 0.004610 0.098198
0.452544 0.013680 0.056682
0.343221 0.042740 0.092447
0.451202 0.049782 0.069925
0.352538 0.000827 0.111103
0.436622 0.016260 0.113360
0.343913 0.048522 0.107428
0.439337 0.054914 0.128104
0.364725 0.001467 0.154218
0.425864 0.012810 0.149795
0.342354 0.049155 0.143503
0.438436 0.053289 0.170211
0.348324 0.003367 0.226810
0.423447 0.012878 0.194207
0.350793 0.053543 0.213404
0.422721 0.048507 0.241026
0.195917 0.089205 0.200954
0.267923 0.090816 0.155647
0.217359 0.033443 0.196446
0.261361 0.040853 0.189072
0.158900 0.092401 0.267198
0.259014 0.089511 0.254169
0.188225 0.039099 0.263434
0.269404 0.034634 0.255224
0.320247 0.075058 0.027140
0.423212 0.077079 0.008059
0.309833 0.018963 0.010460
0.378625 0.044565 0.005345
0.319439 0.073805 0.071825
0.420465 0.085902 0.065915
0.321919 0.014738 0.087837
0.382224 0.048596 0.061112
0.340488 0.087049 0.097224
0.445060 0.080520 0.049115
0.313258 0.023556 0.058277
0.406196 0.054889 0.044563
0.319734 0.083302 0.098919
0.420492 0.085499 0.117576
0.312194 0.021683 0.120913
0.395240 0.055266 0.098949
0.328313 0.085153 0.137823
0.409802 0.083904 0.166009
0.324558 0.026102 0.158594
0.391939 0.042856 0.163279
0.338212 0.085992 0.185815
0.412100 0.093432 0.237439
0.322840 0.026434 0.199118
0.390039 0.027989 0.217072
0.217456 0.072764 0.186451
0.257318 0.080537 0.195525
0.197924 0.017095 0.199992
0.240312 0.013654 0.178110
0.194918 0.079982 0.250972
0.241010 0.075377 0.244077
0.181172 0.013825 0.240945
0.238022 0.030574 0.242895

CELL_TYPES 512
1
1
1
1
1
1
1
1
1
1
1
1
1
1
1
1
1
1
1
1
1
1
1
1
1
1
1
1
1
1
1
1
1
1
1
1
1
1
1
1
1
1
1
1
1
1
1
1
1
1
1
1
1
1
1
1
1
1
1
1
1
1
1
1
1
1
1
1
1
1
1
1
1
1
1
1
1
1
1
1
1
1
1
1
1
1
1
1
1
1
1
1
1
1
1
1
1
1
1
1
1
1
1
1
1
1
1
1
1
1
1
1
1
1
1
1
1
1
1
1
1
1
1
1
1
1
1
1
1
1
1
1
1
1
1
1
1
1
1
1
1
1
1
1
1
1
1
1
1
1
1
1
1
1
1
1
1
1
1
1
1
1
1
1
1
1
1
1
1
1
1
1
1
1
1
1
1
1
1
1
1
1
1
1
1
1
1
1
1
1
1
1
1
1
1
1
1
1
1
1
1
1
1
1
1
1
1
1
1
1
1
1
1
1
1
1
1
1
1
1
1
1
1
1
1
1
1
1
1
1
1
1
1
1
1
1
1
1
1
1
1
1
1
1
1
1
1
1
1
1
1
1
1
1
1
1
1
1
1
1
1
1
1
1
1
1
1
1
1
1
1
1
1
1
1
1
1
1
1
1
1
1
1
1
1
1
1
1
1
1
1
1
1
1
1
1
1
1
1
1
1
1
1
1
1
1
1
1
1
1
1
1
1
1
1
1
1
1
1
1
1
1
1
1
1
1
1
1
1
1
1
1
1
1
1
1
1
1
1
1
1
1
1
1
1
1
1
1
1
1
1
1
1
1
1
1
1
1
1
1
1
1
1
1
1
1
1
1
1
1
1
1
1
1
1
1
1
1
1
1
1
1
1
1
1
1
1
1
1
1
1
1
1
1
1
1
1
1
1
1
1
1
1
1
1
1
1
1
1
1
1
1
1
1
1
1
1
1
1
1
1
1
1
1
1
1
1
1
1
1
1
1
1
1
1
1
1
1
1
1
1
1
1
1
1
1
1
1
1
1
1
1
1
1
1
1
1
1
1
1
1
1
1
1
1
1
1
1
1
1
1
1
1
1
1
1
1
1
1
1
1
1
1
1
1
1
1
1
1
1
1
1
1
1
1
1
1
1
1
1
1
1
1
1
1
1
1
1
1
1
1
1

POINT_DATA 512
SCALARS radius float
LOOKUP_TABLE default
0.5
0.5
0.5
0.5
0.5
0.5
0.5
0.5
0.5
0.5
0.5
0.5
0.5
0.5
0.5
0.5
0.5
0.5
0.5
0.5
0.5
0.5
0.5
0.5
0.5
0.5
0.5
0.5
0.5
0.5
0.5
0.5
0.5
0.5
0.5
0.5
0.5
0.5
0.5
0.5
0.5
0.5
0.5
0.5
0.5
0.5
0.5
0.5
0.5
0.5
0.5
0.5
0.5
0.5
0.5
0.5
0.5
0.5
0.5
0.5
0.5
0.5
0.5
0.5
0.5
0.5
0.5
0.5
0.5
0.5
0.5
0.5
0.5
0.5
0.5
0.5
0.5
0.5
0.5
0.5
0.5
0.5
0.5
0.5
0.5
0.5
0.5
0.5
0.5
0.5
0.5
0.5
0.5
0.5
0.5
0.5
0.5
0.5
0.5
0.5
0.5
0.5
0.5
0.5
0.5
0.5
0.5
0.5
0.5
0.5
0.5
0.5
0.5
0.5
0.5
0.5
0.5
0.5
0.5
0.5
0.5
0.5
0.5
0.5
0.5
0.5
0.5
0.5
0.5
0.5
0.5
0.5
0.5
0.5
0.5
0.5
0.5
0.5
0.5
0.5
0.5
0.5
0.5
0.5
0.5
0.5
0.5
0.5
0.5
0.5
0.5
0.5
0.5
0.5
0.5
0.5
0.5
0.5
0.5
0.5
0.5
0.5
0.5
0.5
0.5
0.5
0.5
0.5
0.5
0.5
0.5
0.5
0.5
0.5
0.5
0.5
0.5
0.5
0.5
0.5
0.5
0.5
0.5
0.5
0.5
0.5
0.5
0.5
0.5
0.5
0.5
0.5
0.5
0.5
0.5
0.5
0.5
0.5
0.5
0.5
0.5
0.5
0.5
0.5
0.5
0.5
0.5
0.5
0.5
0.5
0.5
0.5
0.5
0.5
0.5
0.5
0.5
0.5
0.5
0.5
0.5
0.5
0.5
0.5
0.5
0.5
0.5
0.5
0.5
0.5
0.5
0.5
0.5
0.5
0.5
0.5
0.5
0.5
0.5
0.5
0.5
0.5
0.5
0.5
0.5
0.5
0.5
0.5
0.5
0.5
0.5
0.5
0.5
0.5
0.5
0.5
0.5
0.5
0.5
0.5
0.5
0.5
0.5
0.5
0.5
0.5
0.5
0.5
0.5
0.5
0.5
0.5
0.5
0.5
0.5
0.5
0.5
0.5
0.5
0.5
0.5
0.5
0.5
0.5
0.5
0.5
0.5
0.5
0.5
0.5
0.5
0.5
0.5
0.5
0.5
0.5
0.5
0.5
0.5
0.5
0.5
0.5
0.5
0.5
0.5
0.5
0.5
0.5
0.5
0.5
0.5
0.5
0.5
0.5
0.5
0.5
0.5
0.5
0.5
0.5
0.5
0.5
0.5
0.5
0.5
0.5
0.5
0.5
0.5
0.5
0.5
0.5
0.5
0.5
0.5
0.5
0.5
0.5
0.5
0.5
0.5
0.5
0.5
0.5
0.5
0.5
0.5
0.5
0.5
0.5
0.5
0.5
0.5
0.5
0.5
0.5
0.5
0.5
0.5
0.5
0.5
0.5
0.5
0.5
0.5
0.5
0.5
0.5
0.5
0.5
0.5
0.5
0.5
0.5
0.5
0.5
0.5
0.5
0.5
0.5
0.5
0.5
0.5
0.5
0.5
0.5
0.5
0.5
0.5
0.5
0.5
0.5
0.5
0.5
0.5
0.5
0.5
0.5
0.5
0.5
0.5
0.5
0.5
0.5
0.5
0.5
0.5
0.5
0.5
0.5
0.5
0.5
0.5
0.5
0.5
0.5
0.5
0.5
0.5
0.5
0.5
0.5
0.5
0.5
0.5
0.5
0.5
0.5
0.5
0.5
0.5
0.5
0.5
0.5
0.5
0.5
0.5
0.5
0.5
0.5
0.5
0.5
0.5
0.5
0.5
0.5
0.5
0.5
0.5
0.5
0.5
0.5
0.5
0.5
0.5
0.5
0.5
0.5
0.5
0.5
0.5
0.5
0.5
0.5
0.5
0.5
0.5
0.5
0.5
0.5
0.5
0.5
0.5
0.5
0.5
0.5
0.5
0.5
0.5
0.5
0.5
0.5
0.5
0.5
0.5
0.5
0.5
0.5
0.5
0.5
0.5
0.5
0.5
0.5
0.5
0.5
0.5
0.5
0.5
0.5
0.5
0.5
0.5
0.5
0.5
0.5
0.5
0.5
0.5
0.5
0.5
0.5
