# vtk DataFile Version 2.0
Title Data
ASCII
DATASET UNSTRUCTURED_GRID
POINTS 384 float
0.102577 0.136839 0.000654
0.068840 0.099947 0.057884
0.100097 0.141912 0.102373
0.134990 0.199090 0.114448
0.039230 0.118742 0.092079
0.005003 0.123933 0.022157
0.099963 0.260399 0.080381
0.067942 0.161818 0.132018
0.143496 0.076551 0.105965
0.054006 0.086444 0.012471
0.016065 0.096110 0.129923
0.099833 0.128669 0.149414
0.006804 0.112987 0.200050
0.099972 0.104172 0.192006
0.049452 0.088808 0.202363
0.104724 0.193142 0.152133
0.035652 0.070349 0.246606
0.080567 0.090455 0.245799
0.137836 0.132451 0.237802
0.133978 0.180705 0.233999
0.097150 0.099428 0.291949
0.101057 0.135517 0.302731
0.046211 0.094380 0.296889
0.010618 0.099909 0.337812
0.106314 0.103949 0.355461
0.130423 0.180706 0.332979
0.090097 0.124846 0.399986
0.043503 0.099896 0.383995
0.107169 0.140104 0.425678
0.002501 0.250769 0.403570
0.096989 0.238199 0.475349
0.047426 0.291150 0.467064
0.067241 0.067109 0.099152
0.113780 0.131526 0.051617
0.063754 0.199756 0.105548
0.102851 0.192788 0.051092
0.073848 0.175418 0.016416
0.043140 0.181189 0.079695
0.085269 0.130465 0.095567
0.099955 0.174497 0.093477
0.140762 0.155681 0.139038
0.102839 0.199100 0.200101
0.099901 0.196224 0.099902
0.020355 0.144339 0.138657
0.051157 0.110080 0.177551
0.112766 0.099937 0.147539
0.101919 0.149391 0.206962
0.065325 0.099974 0.128388
0.100253 0.102250 0.240990
0.098682 0.239634 0.198832
0.058556 0.196927 0.219477
0.013830 0.177955 0.205093
0.088291 0.165183 0.251485
0.066119 0.135812 0.283061
0.025591 0.114797 0.257442
0.061158 0.128287 0.223645
0.072320 0.140730 0.356095
0.004412 0.160495 0.284362
0.125300 0.177440 0.283393
0.083256 0.179705 0.317392
0.065391 0.246182 0.437381
0.015121 0.295268 0.429007
0.047966 0.169312 0.398762
0.097485 0.189632 0.387290
0.015365 0.312678 0.015392
0.065928 0.220615 0.007339
0.004823 0.388319 0.004816
0.038106 0.323111 0.079498
0.007698 0.221687 0.067774
0.037601 0.151232 0.046219
0.081538 0.342063 0.026840
0.054719 0.230829 0.054586
0.006572 0.340491 0.123028
0.060896 0.271707 0.109317
0.008512 0.393152 0.094277
0.070055 0.378203 0.099876
0.010961 0.196205 0.158310
0.053258 0.171807 0.176545
0.104728 0.397404 0.161302
0.047327 0.288909 0.154327
0.005157 0.348203 0.209918
0.073961 0.298356 0.199999
0.010221 0.397120 0.190234
0.053826 0.369020 0.195815
0.004417 0.198466 0.249413
0.038882 0.162131 0.249381
0.108369 0.393245 0.254254
0.039707 0.282504 0.241624
0.014091 0.244642 0.293744
0.056966 0.198120 0.279079
0.011376 0.378959 0.282854
0.056941 0.343619 0.291950
0.035701 0.143121 0.321548
0.012379 0.154196 0.364417
0.007279 0.295090 0.304819
0.063032 0.221821 0.302217
0.052338 0.132515 0.003980
0.196854 0.099150 0.028083
0.144944 0.101585 0.089259
0.176722 0.198866 0.135433
0.021556 0.083627 0.066484
0.198801 0.083867 0.100285
0.114979 0.084019 0.054220
0.174774 0.199787 0.089557
0.100011 0.099940 0.099846
0.168521 0.074923 0.060853
0.155192 0.084110 0.168612
0.199976 0.092565 0.150735
0.073787 0.070422 0.163751
0.192442 0.094450 0.200019
0.145515 0.099028 0.210031
0.200004 0.206052 0.199668
0.102217 0.079322 0.199949
0.181639 0.138016 0.213591
0.137528 0.073158 0.250595
0.178271 0.099961 0.247160
0.106687 0.088365 0.309410
0.185042 0.098046 0.295352
0.150572 0.099890 0.328087
0.200539 0.144263 0.304626
0.068254 0.097470 0.340501
0.200081 0.091231 0.357638
0.124868 0.099335 0.400042
0.200078 0.099626 0.409244
0.096142 0.295762 0.478014
0.161357 0.101973 0.423210
0.142460 0.298861 0.501691
0.189371 0.182883 0.487940
0.148896 0.099955 0.023552
0.201657 0.164831 0.071432
0.115102 0.241504 0.016872
0.167914 0.231950 0.102357
0.157622 0.152814 0.040689
0.182218 0.162921 0.101122
0.128133 0.185195 0.009267
0.141516 0.150535 0.086780
0.123072 0.246737 0.117770
0.159453 0.111439 0.133273
0.110983 0.305983 0.125264
0.163924 0.279661 0.118030
0.142265 0.133471 0.183826
0.187322 0.138498 0.163576
0.116249 0.271854 0.161454
0.159793 0.188859 0.176275
0.143701 0.220972 0.208692
0.178268 0.192721 0.220982
0.116704 0.304438 0.210261
0.174256 0.286055 0.206345
0.138325 0.109438 0.281822
0.205890 0.195971 0.295406
0.099961 0.205235 0.252541
0.167655 0.159798 0.264337
0.168831 0.194796 0.301820
0.165355 0.102932 0.374014
0.137334 0.222699 0.290295
0.200159 0.212643 0.300742
0.095291 0.295777 0.425726
0.139803 0.157664 0.459118
0.138966 0.186440 0.411335
0.184416 0.187288 0.391599
0.118075 0.365930 0.106393
0.160834 0.280285 0.021351
0.102200 0.422674 0.004024
0.150810 0.389832 0.000224
0.107756 0.303489 0.061337
0.149905 0.199892 0.052374
0.100804 0.389484 0.062019
0.151025 0.333491 0.047096
0.115842 0.419117 0.118944
0.171580 0.346255 0.110417
0.113011 0.484839 0.096469
0.153979 0.390976 0.081208
0.109358 0.344205 0.167743
0.158599 0.298413 0.162895
0.058854 0.361910 0.146520
0.148962 0.382079 0.143663
0.099989 0.388633 0.205475
0.151816 0.367687 0.192435
0.102143 0.483811 0.197142
0.150603 0.427453 0.197609
0.102256 0.328004 0.254252
0.152871 0.287864 0.250421
0.059814 0.350570 0.242570
0.162920 0.378843 0.239214
0.104243 0.293615 0.301041
0.183701 0.319638 0.292066
0.097902 0.399874 0.298786
0.176036 0.405194 0.276713
0.134951 0.150262 0.375569
0.171934 0.154436 0.343067
0.100006 0.367705 0.310601
0.138839 0.356012 0.279594
0.243648 0.091804 0.033310
0.273511 0.112011 0.100108
0.257795 0.158263 0.145976
0.304585 0.099266 0.042146
0.200353 0.131688 0.031942
0.315405 0.127294 0.119378
0.197702 0.125830 0.108150
0.341991 0.099965 0.008790
0.213225 0.076984 0.078919
0.261358 0.087539 0.079776
0.246962 0.079058 0.126259
0.311052 0.094931 0.153169
0.230659 0.099394 0.189213
0.274821 0.078329 0.183109
0.229362 0.152764 0.185823
0.300155 0.191642 0.209940
0.220634 0.078394 0.242404
0.301067 0.093379 0.200893
0.267162 0.075478 0.230082
0.299965 0.112918 0.242054
0.213033 0.100741 0.285552
0.295725 0.111668 0.292656
0.249560 0.139789 0.296684
0.322043 0.194926 0.325065
0.232589 0.098394 0.321405
0.286553 0.088341 0.320007
0.244644 0.097754 0.376438
0.294009 0.098539 0.374542
0.216024 0.099823 0.457087
0.261276 0.121035 0.462523
0.234195 0.151743 0.498871
0.293047 0.173920 0.498340
0.239882 0.147847 0.102578
0.285849 0.160016 0.100163
0.219850 0.189485 0.115019
0.281111 0.116480 0.046432
0.213940 0.210154 0.099844
0.225598 0.118397 0.069841
0.198173 0.198469 0.032902
0.259592 0.199337 0.088241
0.215616 0.195593 0.162827
0.280298 0.107763 0.147753
0.213616 0.282543 0.114565
0.260525 0.216599 0.117834
0.228959 0.118871 0.144230
0.269188 0.124857 0.198928
0.202608 0.255260 0.166056
0.266035 0.191572 0.182146
0.227289 0.122016 0.224569
0.257146 0.167708 0.224553
0.222056 0.199722 0.210399
0.256491 0.236661 0.198181
0.212941 0.165053 0.246382
0.289307 0.167339 0.262330
0.192376 0.247645 0.257813
0.256235 0.105449 0.263359
0.216037 0.133984 0.364194
0.266894 0.123360 0.343767
0.239567 0.170472 0.332960
0.276832 0.189146 0.305399
0.183571 0.173754 0.439326
0.294921 0.096337 0.442734
0.249822 0.099587 0.421929
0.295310 0.133385 0.400200
0.203935 0.357964 0.011310
0.242701 0.192958 0.010903
0.196826 0.413037 0.014401
0.252754 0.390454 0.110961
0.198179 0.320993 0.070051
0.246705 0.159814 0.052845
0.196704 0.387856 0.055740
0.240082 0.279868 0.037781
0.202198 0.396262 0.100034
0.251380 0.326526 0.104678
0.198917 0.482922 0.103038
0.240433 0.345231 0.060933
0.194602 0.364444 0.150946
0.247995 0.270270 0.151621
0.197884 0.431464 0.151868
0.241079 0.377664 0.159778
0.202472 0.380363 0.199998
0.251572 0.294511 0.202115
0.281506 0.388290 0.294480
0.267665 0.359788 0.236467
0.207938 0.297288 0.246367
0.246641 0.196237 0.266448
0.220067 0.362938 0.251738
0.199996 0.421512 0.202085
0.201199 0.198575 0.347211
0.254690 0.165042 0.379784
0.216172 0.318705 0.339429
0.151135 0.328956 0.327444
0.214024 0.187746 0.400155
0.290039 0.198731 0.399955
0.200010 0.388937 0.297107
0.189903 0.258999 0.366102
0.351033 0.097053 0.122836
0.434526 0.111693 0.097787
0.416857 0.182501 0.110731
0.465684 0.157280 0.083522
0.308149 0.097335 0.093202
0.429755 0.119214 0.003075
0.401268 0.096321 0.068679
0.469146 0.124098 0.034483
0.358655 0.081344 0.051210
0.504228 0.274274 0.084465
0.384729 0.107811 0.099972
0.498059 0.173959 0.122646
0.348833 0.094071 0.196038
0.434284 0.099737 0.170432
0.431302 0.099843 0.222048
0.510270 0.294250 0.200029
0.341239 0.094951 0.244466
0.473513 0.121478 0.208966
0.400051 0.097686 0.259664
0.506207 0.298065 0.249718
0.319948 0.094473 0.299980
0.411304 0.118760 0.300001
0.403061 0.096377 0.309406
0.492072 0.179629 0.295377
0.315468 0.111071 0.327856
0.460220 0.098199 0.318927
0.388795 0.089762 0.369636
0.477276 0.110483 0.361725
0.329489 0.130086 0.466315
0.402443 0.249240 0.410900
0.369461 0.170975 0.443961
0.450497 0.292790 0.405014
0.343679 0.119872 0.071315
0.422086 0.138322 0.048502
0.303306 0.206599 0.099925
0.372601 0.156174 0.037748
0.324153 0.164318 0.027151
0.400554 0.188672 0.002190
0.304796 0.151475 0.071794
0.399959 0.186326 0.073458
0.302580 0.178299 0.147704
0.456667 0.133488 0.134300
0.298601 0.204573 0.148753
0.407583 0.125004 0.137659
0.385399 0.099942 0.165890
0.484605 0.158934 0.170153
0.302435 0.210242 0.199839
0.389477 0.188663 0.171000
0.340375 0.190620 0.177705
0.436177 0.159374 0.182574
0.330535 0.150741 0.238348
0.382726 0.099906 0.216437
0.366342 0.100335 0.285781
0.460625 0.115576 0.258013
0.337977 0.176302 0.281302
0.383071 0.178266 0.302819
0.301397 0.167787 0.361966
0.445668 0.150416 0.311087
0.342280 0.098535 0.376357
0.434541 0.097561 0.370058
0.310466 0.177818 0.436316
0.412546 0.296735 0.454049
0.357932 0.099726 0.430518
0.400658 0.299650 0.404696
0.295284 0.234927 0.009652
0.313912 0.199487 0.102991
0.283401 0.371607 0.009950
0.302859 0.297375 0.006362
0.283781 0.194228 0.045765
0.358486 0.179105 0.099602
0.290181 0.340127 0.057625
0.303632 0.234385 0.058880
0.299989 0.318567 0.110889
0.357007 0.143948 0.141741
0.298494 0.399723 0.098663
0.319244 0.355260 0.098961
0.294259 0.286524 0.168726
0.316106 0.126116 0.189608
0.282917 0.398852 0.175355
0.285753 0.360057 0.141885
0.368245 0.160798 0.207460
0.409467 0.185925 0.221854
0.313385 0.294643 0.247936
0.299180 0.334715 0.200087
0.375666 0.142579 0.258022
0.418633 0.169792 0.269340
0.311938 0.352328 0.184838
0.380841 0.290840 0.196181
0.360957 0.099403 0.330714
0.406593 0.149428 0.344595
0.201672 0.357108 0.392377
0.353688 0.163476 0.353258
0.331655 0.141427 0.392847
0.383349 0.138975 0.387166
0.277141 0.297880 0.392298
0.389249 0.196085 0.391447

CELL_TYPES 384
1
1
1
1
1
1
1
1
1
1
1
1
1
1
1
1
1
1
1
1
1
1
1
1
1
1
1
1
1
1
1
1
1
1
1
1
1
1
1
1
1
1
1
1
1
1
1
1
1
1
1
1
1
1
1
1
1
1
1
1
1
1
1
1
1
1
1
1
1
1
1
1
1
1
1
1
1
1
1
1
1
1
1
1
1
1
1
1
1
1
1
1
1
1
1
1
1
1
1
1
1
1
1
1
1
1
1
1
1
1
1
1
1
1
1
1
1
1
1
1
1
1
1
1
1
1
1
1
1
1
1
1
1
1
1
1
1
1
1
1
1
1
1
1
1
1
1
1
1
1
1
1
1
1
1
1
1
1
1
1
1
1
1
1
1
1
1
1
1
1
1
1
1
1
1
1
1
1
1
1
1
1
1
1
1
1
1
1
1
1
1
1
1
1
1
1
1
1
1
1
1
1
1
1
1
1
1
1
1
1
1
1
1
1
1
1
1
1
1
1
1
1
1
1
1
1
1
1
1
1
1
1
1
1
1
1
1
1
1
1
1
1
1
1
1
1
1
1
1
1
1
1
1
1
1
1
1
1
1
1
1
1
1
1
1
1
1
1
1
1
1
1
1
1
1
1
1
1
1
1
1
1
1
1
1
1
1
1
1
1
1
1
1
1
1
1
1
1
1
1
1
1
1
1
1
1
1
1
1
1
1
1
1
1
1
1
1
1
1
1
1
1
1
1
1
1
1
1
1
1
1
1
1
1
1
1
1
1
1
1
1
1
1
1
1
1
1
1
1
1
1
1
1
1
1
1
1
1
1
1
1
1
1
1
1
1
1
1
1
1
1
1
1
1
1
1
1
1
1
1
1
1
1
1

POINT_DATA 384
SCALARS radius float
LOOKUP_TABLE default
0.5
0.5
0.5
0.5
0.5
0.5
0.5
0.5
0.5
0.5
0.5
0.5
0.5
0.5
0.5
0.5
0.5
0.5
0.5
0.5
0.5
0.5
0.5
0.5
0.5
0.5
0.5
0.5
0.5
0.5
0.5
0.5
0.5
0.5
0.5
0.5
0.5
0.5
0.5
0.5
0.5
0.5
0.5
0.5
0.5
0.5
0.5
0.5
0.5
0.5
0.5
0.5
0.5
0.5
0.5
0.5
0.5
0.5
0.5
0.5
0.5
0.5
0.5
0.5
0.5
0.5
0.5
0.5
0.5
0.5
0.5
0.5
0.5
0.5
0.5
0.5
0.5
0.5
0.5
0.5
0.5
0.5
0.5
0.5
0.5
0.5
0.5
0.5
0.5
0.5
0.5
0.5
0.5
0.5
0.5
0.5
0.5
0.5
0.5
0.5
0.5
0.5
0.5
0.5
0.5
0.5
0.5
0.5
0.5
0.5
0.5
0.5
0.5
0.5
0.5
0.5
0.5
0.5
0.5
0.5
0.5
0.5
0.5
0.5
0.5
0.5
0.5
0.5
0.5
0.5
0.5
0.5
0.5
0.5
0.5
0.5
0.5
0.5
0.5
0.5
0.5
0.5
0.5
0.5
0.5
0.5
0.5
0.5
0.5
0.5
0.5
0.5
0.5
0.5
0.5
0.5
0.5
0.5
0.5
0.5
0.5
0.5
0.5
0.5
0.5
0.5
0.5
0.5
0.5
0.5
0.5
0.5
0.5
0.5
0.5
0.5
0.5
0.5
0.5
0.5
0.5
0.5
0.5
0.5
0.5
0.5
0.5
0.5
0.5
0.5
0.5
0.5
0.5
0.5
0.5
0.5
0.5
0.5
0.5
0.5
0.5
0.5
0.5
0.5
0.5
0.5
0.5
0.5
0.5
0.5
0.5
0.5
0.5
0.5
0.5
0.5
0.5
0.5
0.5
0.5
0.5
0.5
0.5
0.5
0.5
0.5
0.5
0.5
0.5
0.5
0.5
0.5
0.5
0.5
0.5
0.5
0.5
0.5
0.5
0.5
0.5
0.5
0.5
0.5
0.5
0.5
0.5
0.5
0.5
0.5
0.5
0.5
0.5
0.5
0.5
0.5
0.5
0.5
0.5
0.5
0.5
0.5
0.5
0.5
0.5
0.5
0.5
0.5
0.5
0.5
0.5
0.5
0.5
0.5
0.5
0.5
0.5
0.5
0.5
0.5
0.5
0.5
0.5
0.5
0.5
0.5
0.5
0.5
0.5
0.5
0.5
0.5
0.5
0.5
0.5
0.5
0.5
0.5
0.5
0.5
0.5
0.5
0.5
0.5
0.5
0.5
0.5
0.5
0.5
0.5
0.5
0.5
0.5
0.5
0.5
0.5
0.5
0.5
0.5
0.5
0.5
0.5
0.5
0.5
0.5
0.5
0.5
0.5
0.5
0.5
0.5
0.5
0.5
0.5
0.5
0.5
0.5
0.5
0.5
0.5
0.5
0.5
0.5
0.5
0.5
0.5
0.5
0.5
0.5
0.5
0.5
0.5
0.5
0.5
0.5
0.5
0.5
0.5
0.5
0.5
0.5
0.5
0.5
0.5
0.5
0.5
0.5
0.5
0.5
0.5
0.5
0.5
0.5
0.5
0.5
0.5
0.5
0.5
0.5
0.5
0.5
0.5
0.5
0.5
