# vtk DataFile Version 2.0
Title Data
ASCII
DATASET UNSTRUCTURED_GRID
POINTS 360 float
0.463533 0.025936 0.193230
0.470732 0.005652 0.248506
0.089898 0.098943 0.260828
0.322665 0.086709 0.136710
0.529300 0.061649 0.359654
0.462941 0.186306 0.362396
0.233953 0.101110 0.278096
0.425112 0.024398 0.256242
0.471674 0.041497 0.392139
0.452763 0.125364 0.395184
0.099919 0.097716 0.473627
0.438699 0.072305 0.437142
0.431800 0.056552 0.487266
0.418704 0.145643 0.489773
0.198279 0.099705 0.443247
0.451692 0.026756 0.454405
0.460460 0.027806 0.545495
0.516561 0.034057 0.559953
0.080484 0.098965 0.499156
0.415600 0.093486 0.601235
0.188437 0.060754 0.534143
0.406476 0.061878 0.672719
0.145456 0.099485 0.611910
0.413200 0.099939 0.700626
0.446982 0.060621 0.216767
0.440227 0.064684 0.179723
0.342213 0.077545 0.189066
0.408922 0.107850 0.236833
0.283504 0.051642 0.255158
0.390874 0.076624 0.267877
0.355682 0.088860 0.235045
0.431915 0.123989 0.281957
0.384806 0.121174 0.280430
0.458683 0.133189 0.348527
0.388700 0.118276 0.461823
0.425258 0.162653 0.413380
0.417369 0.153288 0.541609
0.460686 0.156597 0.521119
0.399815 0.099995 0.518501
0.401074 0.189402 0.450498
0.444544 0.071153 0.530732
0.479081 0.084600 0.558775
0.433470 0.123176 0.588667
0.470024 0.100181 0.599842
0.400101 0.063238 0.594942
0.486056 0.158844 0.670628
0.460548 0.099822 0.670629
0.460301 0.165239 0.617233
0.374359 0.045370 0.205013
0.396919 0.121142 0.199893
0.193342 0.087059 0.251787
0.297677 0.099952 0.157116
0.244032 0.088693 0.336729
0.405853 0.161173 0.267250
0.322137 0.083349 0.270477
0.390956 0.168692 0.221409
0.420007 0.093423 0.399886
0.411996 0.099947 0.363298
0.343633 0.078321 0.399258
0.380421 0.118251 0.406214
0.382207 0.092727 0.562600
0.346818 0.199567 0.508625
0.400170 0.080844 0.430723
0.359223 0.151784 0.443242
0.440477 0.067050 0.576538
0.444951 0.113761 0.542060
0.385630 0.132643 0.576599
0.406984 0.099898 0.561261
0.400467 0.052542 0.628519
0.416318 0.166481 0.596546
0.407823 0.099995 0.646500
0.306686 0.187497 0.607441
0.283626 0.082815 0.199377
0.341699 0.194415 0.189921
0.351458 0.105485 0.199835
0.361969 0.149676 0.188230
0.280593 0.104783 0.289701
0.284979 0.188825 0.204304
0.370761 0.131438 0.232411
0.305384 0.224602 0.279223
0.165052 0.099897 0.299285
0.394381 0.180721 0.352184
0.422666 0.149024 0.373506
0.326514 0.181017 0.419663
0.115921 0.092744 0.298943
0.323584 0.196411 0.466017
0.343160 0.109916 0.478468
0.299714 0.143425 0.489645
0.186785 0.092730 0.376597
0.344502 0.198607 0.562734
0.199354 0.099920 0.559544
0.326073 0.230242 0.535129
0.146544 0.098050 0.488649
0.322347 0.109452 0.600590
0.382933 0.099573 0.612090
0.325170 0.271114 0.575471
0.289315 0.099541 0.193551
0.347927 0.181654 0.281882
0.365647 0.395109 0.287962
0.407469 0.402097 0.298469
0.286844 0.142121 0.229395
0.330997 0.360122 0.297130
0.404281 0.354304 0.299906
0.446058 0.330064 0.299004
0.416689 0.133700 0.328156
0.309329 0.330881 0.409146
0.373275 0.150655 0.381164
0.362364 0.373869 0.426560
0.336792 0.103446 0.427426
0.306399 0.274247 0.492130
0.337837 0.155648 0.496304
0.379082 0.411822 0.442914
0.361832 0.148471 0.538148
0.340467 0.363102 0.481269
0.373803 0.480941 0.491115
0.436667 0.482792 0.480343
0.335384 0.153287 0.579141
0.305951 0.333063 0.538384
0.355954 0.395337 0.516740
0.440888 0.385206 0.537320
0.471009 0.083239 0.150035
0.501564 0.099837 0.171161
0.499873 0.037819 0.176520
0.467126 0.128581 0.228798
0.486492 0.089805 0.259379
0.507880 0.007234 0.270581
0.515675 0.074590 0.307947
0.433050 0.155949 0.221020
0.562668 0.038170 0.344417
0.500838 0.103878 0.335178
0.497914 0.058111 0.414041
0.494360 0.156156 0.389453
0.511775 0.035301 0.463952
0.481347 0.103475 0.425420
0.454221 0.099958 0.493109
0.455576 0.132182 0.457312
0.544107 0.036443 0.505891
0.506202 0.158349 0.506532
0.547562 0.013700 0.591667
0.500231 0.099114 0.599901
0.590399 0.047811 0.659904
0.496679 0.069752 0.721590
0.503265 0.099188 0.693365
0.587547 0.099964 0.662424
0.387832 0.118468 0.157296
0.429081 0.103146 0.163772
0.482118 0.077951 0.199798
0.499754 0.180412 0.190743
0.453716 0.090033 0.250336
0.510996 0.063535 0.218275
0.483433 0.045121 0.231652
0.462019 0.166719 0.269941
0.506276 0.032021 0.316229
0.505295 0.171635 0.297953
0.465692 0.088695 0.399962
0.491676 0.114515 0.373689
0.476799 0.068361 0.462866
0.422096 0.118364 0.429534
0.409204 0.099549 0.473782
0.489031 0.115586 0.522116
0.390418 0.191517 0.513513
0.523726 0.096984 0.559552
0.499489 0.053148 0.519151
0.511338 0.151048 0.599899
0.554791 0.043879 0.628367
0.449338 0.083825 0.627646
0.544748 0.076426 0.674725
0.513064 0.099795 0.645108
0.422187 0.148890 0.182138
0.439409 0.105467 0.199939
0.392933 0.191547 0.186279
0.427430 0.215025 0.200898
0.472971 0.099919 0.316909
0.442810 0.215680 0.297341
0.383101 0.199750 0.283194
0.415105 0.200081 0.246698
0.455090 0.198950 0.308415
0.483893 0.072885 0.355915
0.411934 0.199898 0.318384
0.407689 0.199961 0.394848
0.383267 0.186549 0.404095
0.444896 0.178863 0.460635
0.366239 0.199924 0.443875
0.398273 0.206001 0.490913
0.466059 0.154481 0.569962
0.485934 0.053526 0.595020
0.394429 0.192440 0.561946
0.435364 0.199396 0.525069
0.447584 0.199703 0.577826
0.491468 0.120037 0.636489
0.364690 0.148083 0.617525
0.400411 0.210923 0.563989
0.327179 0.200765 0.211295
0.374529 0.208548 0.200919
0.462550 0.302801 0.254743
0.549045 0.262874 0.252337
0.378253 0.297776 0.294729
0.434880 0.286441 0.288480
0.502852 0.279033 0.299969
0.536148 0.214384 0.299915
0.350061 0.252300 0.423740
0.420634 0.247907 0.433176
0.392654 0.325162 0.412449
0.472342 0.315616 0.403708
0.353562 0.295291 0.488047
0.435193 0.294581 0.491945
0.398897 0.374388 0.493740
0.490076 0.350987 0.446890
0.373839 0.239796 0.540614
0.395188 0.265864 0.482778
0.464192 0.328994 0.482497
0.552156 0.337026 0.552827
0.375348 0.274939 0.581311
0.402706 0.283031 0.527458
0.453417 0.311491 0.549131
0.567554 0.294700 0.561712
0.487086 0.344514 0.275388
0.542725 0.299850 0.284322
0.455489 0.394708 0.294662
0.502600 0.394023 0.275154
0.462522 0.258925 0.318080
0.581634 0.232481 0.291255
0.480987 0.300024 0.299793
0.528687 0.337988 0.299866
0.458080 0.374757 0.400693
0.537596 0.272105 0.337101
0.466337 0.361114 0.324959
0.492942 0.393273 0.357728
0.465662 0.409693 0.428590
0.510306 0.394877 0.432284
0.466256 0.433762 0.391640
0.499931 0.480968 0.397236
0.445545 0.383773 0.478693
0.516276 0.387124 0.486074
0.483213 0.420985 0.544869
0.513611 0.444917 0.473959
0.491101 0.383400 0.513627
0.563371 0.382065 0.575712
0.466923 0.383785 0.580176
0.516961 0.398758 0.568046
0.475249 0.133394 0.184590
0.551350 0.064389 0.199924
0.541258 0.097416 0.284738
0.653419 0.065398 0.231755
0.556008 0.085810 0.331427
0.563459 0.073116 0.252418
0.525338 0.049298 0.263883
0.607385 0.057344 0.292958
0.537019 0.031664 0.395922
0.564238 0.099940 0.368367
0.519920 0.093413 0.389174
0.606602 0.095076 0.344831
0.499795 0.099909 0.490346
0.547519 0.055047 0.429553
0.545733 0.089421 0.484655
0.607536 0.077609 0.474634
0.564961 0.016252 0.546142
0.597026 0.054043 0.533147
0.551921 0.062841 0.543885
0.608837 0.099883 0.547339
0.557607 0.096795 0.623136
0.588147 0.052740 0.582913
0.620046 0.065772 0.624297
0.593884 0.113438 0.599959
0.526351 0.076653 0.176427
0.562838 0.105741 0.199703
0.503354 0.107186 0.207543
0.567549 0.116839 0.246916
0.527884 0.018751 0.199838
0.570802 0.030261 0.270294
0.505047 0.157747 0.224249
0.525365 0.119095 0.299915
0.516789 0.096874 0.253835
0.608815 0.099910 0.276097
0.548766 0.099856 0.411284
0.575470 0.099908 0.446215
0.516039 0.088600 0.444163
0.595322 0.090566 0.399933
0.503800 0.129997 0.459389
0.547453 0.136389 0.478196
0.501979 0.099921 0.519160
0.591463 0.099406 0.504516
0.499982 0.122741 0.566321
0.566212 0.099846 0.567192
0.540361 0.062976 0.590546
0.624923 0.099735 0.591459
0.527922 0.103025 0.599994
0.599352 0.095739 0.600063
0.454292 0.183528 0.193962
0.519072 0.198737 0.253736
0.567586 0.199320 0.258429
0.653756 0.085141 0.279435
0.489314 0.202069 0.298164
0.542363 0.149548 0.270133
0.593274 0.151956 0.269468
0.707489 0.110710 0.274496
0.467533 0.184318 0.416507
0.535967 0.135155 0.396236
0.492248 0.222587 0.429141
0.552814 0.179449 0.405669
0.484816 0.192122 0.488398
0.511246 0.175790 0.442724
0.483991 0.282680 0.491728
0.598126 0.194902 0.455144
0.481617 0.197918 0.540697
0.547546 0.103395 0.518574
0.445959 0.219724 0.484797
0.562604 0.189003 0.488107
0.496028 0.198317 0.587841
0.516349 0.165761 0.554275
0.542499 0.199668 0.531934
0.656931 0.321215 0.562089
0.600118 0.199017 0.299816
0.660729 0.128359 0.280141
0.590816 0.299889 0.275979
0.635612 0.170127 0.288263
0.578563 0.099945 0.299829
0.681819 0.173241 0.299747
0.562161 0.174926 0.303411
0.621238 0.115926 0.302407
0.469260 0.274897 0.429155
0.577376 0.210188 0.395921
0.577515 0.287975 0.388028
0.632870 0.114813 0.382139
0.562351 0.297842 0.429962
0.625810 0.099689 0.428840
0.617807 0.230547 0.412664
0.637447 0.168429 0.411363
0.536693 0.226249 0.483510
0.621050 0.113662 0.490416
0.605251 0.323372 0.523958
0.656083 0.254577 0.469146
0.574551 0.274287 0.510499
0.667808 0.381951 0.552394
0.597604 0.296111 0.599945
0.640129 0.393508 0.592545
0.563046 0.358999 0.272217
0.601649 0.365943 0.299964
0.499934 0.427856 0.299689
0.547377 0.399836 0.295665
0.559264 0.267465 0.299948
0.609484 0.269434 0.299989
0.510600 0.381992 0.317135
0.564054 0.364391 0.318839
0.585745 0.205165 0.329110
0.645354 0.162378 0.331805
0.530885 0.344815 0.350611
0.578951 0.391357 0.369350
0.557553 0.338158 0.393720
0.599921 0.352975 0.398193
0.507141 0.399895 0.393182
0.568540 0.451271 0.392631
0.566139 0.371189 0.474743
0.606807 0.296626 0.461068
0.552297 0.386099 0.407955
0.583450 0.399188 0.438410
0.595290 0.346578 0.572323
0.620072 0.376753 0.544711
0.558355 0.417774 0.560908
0.617575 0.411194 0.535213

CELL_TYPES 360
1
1
1
1
1
1
1
1
1
1
1
1
1
1
1
1
1
1
1
1
1
1
1
1
1
1
1
1
1
1
1
1
1
1
1
1
1
1
1
1
1
1
1
1
1
1
1
1
1
1
1
1
1
1
1
1
1
1
1
1
1
1
1
1
1
1
1
1
1
1
1
1
1
1
1
1
1
1
1
1
1
1
1
1
1
1
1
1
1
1
1
1
1
1
1
1
1
1
1
1
1
1
1
1
1
1
1
1
1
1
1
1
1
1
1
1
1
1
1
1
1
1
1
1
1
1
1
1
1
1
1
1
1
1
1
1
1
1
1
1
1
1
1
1
1
1
1
1
1
1
1
1
1
1
1
1
1
1
1
1
1
1
1
1
1
1
1
1
1
1
1
1
1
1
1
1
1
1
1
1
1
1
1
1
1
1
1
1
1
1
1
1
1
1
1
1
1
1
1
1
1
1
1
1
1
1
1
1
1
1
1
1
1
1
1
1
1
1
1
1
1
1
1
1
1
1
1
1
1
1
1
1
1
1
1
1
1
1
1
1
1
1
1
1
1
1
1
1
1
1
1
1
1
1
1
1
1
1
1
1
1
1
1
1
1
1
1
1
1
1
1
1
1
1
1
1
1
1
1
1
1
1
1
1
1
1
1
1
1
1
1
1
1
1
1
1
1
1
1
1
1
1
1
1
1
1
1
1
1
1
1
1
1
1
1
1
1
1
1
1
1
1
1
1
1
1
1
1
1
1
1
1
1
1
1
1
1
1
1
1
1
1
1
1
1
1
1
1
1
1
1
1
1
1
1
1
1
1
1
1

POINT_DATA 360
SCALARS radius float
LOOKUP_TABLE default
0.5
0.5
0.5
0.5
0.5
0.5
0.5
0.5
0.5
0.5
0.5
0.5
0.5
0.5
0.5
0.5
0.5
0.5
0.5
0.5
0.5
0.5
0.5
0.5
0.5
0.5
0.5
0.5
0.5
0.5
0.5
0.5
0.5
0.5
0.5
0.5
0.5
0.5
0.5
0.5
0.5
0.5
0.5
0.5
0.5
0.5
0.5
0.5
0.5
0.5
0.5
0.5
0.5
0.5
0.5
0.5
0.5
0.5
0.5
0.5
0.5
0.5
0.5
0.5
0.5
0.5
0.5
0.5
0.5
0.5
0.5
0.5
0.5
0.5
0.5
0.5
0.5
0.5
0.5
0.5
0.5
0.5
0.5
0.5
0.5
0.5
0.5
0.5
0.5
0.5
0.5
0.5
0.5
0.5
0.5
0.5
0.5
0.5
0.5
0.5
0.5
0.5
0.5
0.5
0.5
0.5
0.5
0.5
0.5
0.5
0.5
0.5
0.5
0.5
0.5
0.5
0.5
0.5
0.5
0.5
0.5
0.5
0.5
0.5
0.5
0.5
0.5
0.5
0.5
0.5
0.5
0.5
0.5
0.5
0.5
0.5
0.5
0.5
0.5
0.5
0.5
0.5
0.5
0.5
0.5
0.5
0.5
0.5
0.5
0.5
0.5
0.5
0.5
0.5
0.5
0.5
0.5
0.5
0.5
0.5
0.5
0.5
0.5
0.5
0.5
0.5
0.5
0.5
0.5
0.5
0.5
0.5
0.5
0.5
0.5
0.5
0.5
0.5
0.5
0.5
0.5
0.5
0.5
0.5
0.5
0.5
0.5
0.5
0.5
0.5
0.5
0.5
0.5
0.5
0.5
0.5
0.5
0.5
0.5
0.5
0.5
0.5
0.5
0.5
0.5
0.5
0.5
0.5
0.5
0.5
0.5
0.5
0.5
0.5
0.5
0.5
0.5
0.5
0.5
0.5
0.5
0.5
0.5
0.5
0.5
0.5
0.5
0.5
0.5
0.5
0.5
0.5
0.5
0.5
0.5
0.5
0.5
0.5
0.5
0.5
0.5
0.5
0.5
0.5
0.5
0.5
0.5
0.5
0.5
0.5
0.5
0.5
0.5
0.5
0.5
0.5
0.5
0.5
0.5
0.5
0.5
0.5
0.5
0.5
0.5
0.5
0.5
0.5
0.5
0.5
0.5
0.5
0.5
0.5
0.5
0.5
0.5
0.5
0.5
0.5
0.5
0.5
0.5
0.5
0.5
0.5
0.5
0.5
0.5
0.5
0.5
0.5
0.5
0.5
0.5
0.5
0.5
0.5
0.5
0.5
0.5
0.5
0.5
0.5
0.5
0.5
0.5
0.5
0.5
0.5
0.5
0.5
0.5
0.5
0.5
0.5
0.5
0.5
0.5
0.5
0.5
0.5
0.5
0.5
0.5
0.5
0.5
0.5
0.5
0.5
0.5
0.5
0.5
0.5
0.5
0.5
0.5
0.5
0.5
0.5
0.5
0.5
0.5
0.5
0.5
0.5
0.5
0.5
0.5
0.5
0.5
0.5
0.5
0.5
0.5
0.5
0.5
0.5
0.5
0.5
