# vtk DataFile Version 2.0
Title Data
ASCII
DATASET UNSTRUCTURED_GRID
POINTS 512 float
0.100834 0.037850 0.060941
0.098427 0.034018 0.099420
0.098316 0.087340 0.070774
0.127085 0.093706 0.057251
0.099744 0.045119 0.099858
0.068518 0.023365 0.101052
0.084937 0.096488 0.133707
0.099964 0.088938 0.099908
0.096330 0.092944 0.054001
0.041561 0.093494 0.027416
0.100131 0.071663 0.099951
0.045845 0.044757 0.095222
0.097775 0.098227 0.157456
0.115757 0.098713 0.170235
0.092881 0.045025 0.164271
0.034726 0.041393 0.161827
0.099882 0.028214 0.200002
0.100007 0.014600 0.200004
0.097350 0.090928 0.229423
0.100024 0.068584 0.200050
0.033113 0.046977 0.284350
0.100559 0.027656 0.264729
0.040095 0.092703 0.273905
0.008043 0.073870 0.273123
0.097125 0.061095 0.359129
0.017189 0.046112 0.359783
0.086137 0.094954 0.340196
0.037822 0.095813 0.336124
0.085877 0.040324 0.472802
0.043150 0.051659 0.480896
0.079056 0.092218 0.459425
0.044217 0.002526 0.472795
0.013448 0.027470 0.072369
0.094556 0.098088 0.099179
0.115962 0.084902 0.099822
0.101403 0.062873 0.067151
0.065406 0.005728 0.011536
0.067461 0.091880 0.047845
0.062397 0.056813 0.131622
0.111846 0.035647 0.099965
0.099976 0.049594 0.119262
0.130841 0.054062 0.098752
0.099479 0.012277 0.099397
0.132093 0.011490 0.060164
0.005160 0.064548 0.097948
0.016279 0.060872 0.142990
0.079077 0.093728 0.099390
0.128769 0.098172 0.133143
0.089903 0.087599 0.171546
0.026012 0.084329 0.183970
0.065474 0.075035 0.171833
0.119042 0.060176 0.184134
0.039869 0.084651 0.231923
0.067297 0.079271 0.236747
0.099988 0.034267 0.222521
0.128436 0.051114 0.235544
0.064155 0.026916 0.278725
0.026895 0.017371 0.273430
0.115694 0.074954 0.283188
0.050133 0.083496 0.301490
0.073150 0.009837 0.346492
0.100101 0.023816 0.365030
0.095592 0.059948 0.401258
0.100002 0.065575 0.394500
0.038603 0.006196 0.073411
0.100009 0.009568 0.120392
0.073865 0.073748 0.052263
0.099917 0.079441 0.114459
0.038550 0.009841 0.134701
0.058609 0.023506 0.086447
0.064542 0.051444 0.021141
0.086365 0.070596 0.099898
0.075512 0.086686 0.134835
0.040716 0.013622 0.043448
0.111059 0.030585 0.022650
0.022882 0.033326 0.137214
0.103997 0.088102 0.143849
0.025531 0.085222 0.134993
0.076306 0.027615 0.163554
0.005491 0.015062 0.164595
0.012599 0.023846 0.213759
0.041249 0.016709 0.181805
0.052442 0.045308 0.214637
0.058689 0.065431 0.204516
0.119429 0.008821 0.259761
0.093662 0.017835 0.250383
0.054553 0.068515 0.269177
0.100397 0.061064 0.252852
0.075017 0.042526 0.329608
0.099812 0.026805 0.321773
0.085725 0.068878 0.299978
0.098276 0.079543 0.318493
0.089930 0.033250 0.412145
0.051310 0.034778 0.439090
0.073709 0.068560 0.435476
0.037509 0.097948 0.424754
0.024473 0.044199 0.110796
0.098030 0.049489 0.032600
0.062678 0.076917 0.141405
0.047669 0.081138 0.106820
0.003767 0.045440 0.016015
0.042473 0.064931 0.121263
0.006248 0.083269 0.054476
0.067257 0.075104 0.085306
0.115247 0.078715 0.016439
0.034787 0.070712 0.030537
0.098992 0.024967 0.098834
0.017630 0.007950 0.099110
0.097000 0.070129 0.139827
0.015946 0.078672 0.159105
0.129986 0.021873 0.139942
0.131222 0.041990 0.141586
0.007373 0.096624 0.198093
0.056384 0.093526 0.204004
0.004654 0.044467 0.183888
0.109907 0.044300 0.199848
0.100136 0.095622 0.243363
0.060411 0.003291 0.236094
0.034050 0.054725 0.244449
0.072878 0.044441 0.252490
0.099440 0.098890 0.300015
0.005413 0.005222 0.300638
0.065008 0.052198 0.299785
0.021845 0.042868 0.314174
0.070019 0.008578 0.411312
0.008257 0.017416 0.395777
0.059541 0.073040 0.361176
0.011521 0.082053 0.365566
0.089206 0.010972 0.068459
0.164012 0.098950 0.102561
0.100127 0.054058 0.053930
0.177377 0.055673 0.141040
0.100129 0.095205 0.099991
0.173903 0.093459 0.135753
0.130961 0.055771 0.037299
0.148484 0.043611 0.035557
0.054423 0.002487 0.101557
0.149826 0.007503 0.030465
0.039078 0.056576 0.070067
0.166071 0.051367 0.065625
0.042093 0.096479 0.146042
0.142311 0.006247 0.144471
0.057808 0.058144 0.163973
0.136838 0.063690 0.140569
0.055140 0.023723 0.205880
0.158772 0.030430 0.204237
0.099968 0.088536 0.200345
0.145489 0.090605 0.199710
0.102564 0.055775 0.270974
0.136555 0.042344 0.272188
0.070110 0.094870 0.268104
0.133737 0.094181 0.276102
0.097395 0.060318 0.340821
0.141186 0.060230 0.344436
0.003040 0.014419 0.344364
0.135977 0.093811 0.360797
0.001344 0.074963 0.472678
0.117256 0.072835 0.477308
0.002736 0.023244 0.475001
0.114415 0.017650 0.448246
0.107366 0.052989 0.151120
0.155641 0.050186 0.114913
0.124085 0.099102 0.099854
0.133612 0.094232 0.008620
0.081033 0.058307 0.099992
0.137639 0.056292 0.003096
0.062921 0.012569 0.135219
0.168856 0.006064 0.127531
0.125789 0.073215 0.056637
0.141215 0.071318 0.127647
0.059501 0.032656 0.044152
0.092974 0.024093 0.020036
0.043846 0.076993 0.058636
0.047075 0.069145 0.099766
0.061916 0.045244 0.078048
0.039795 0.032584 0.100241
0.066876 0.005291 0.173101
0.057676 0.092021 0.173081
0.119482 0.079050 0.166755
0.138451 0.080895 0.180620
0.086813 0.010081 0.232546
0.099549 0.095402 0.200057
0.004638 0.069505 0.222046
0.083619 0.049943 0.231979
0.099691 0.032638 0.292805
0.136944 0.017661 0.288068
0.089526 0.090906 0.274653
0.099965 0.086505 0.300044
0.048295 0.006551 0.377203
0.091316 0.031807 0.379350
0.047574 0.073793 0.396566
0.047708 0.043900 0.394478
0.009405 0.088104 0.092188
0.139041 0.090400 0.104220
0.131710 0.024917 0.097952
0.159163 0.026753 0.119615
0.097255 0.088113 0.013614
0.157364 0.085667 0.033926
0.123337 0.020646 0.002221
0.166178 0.027512 0.088264
0.099715 0.099405 0.099537
0.142499 0.002407 0.089843
0.062717 0.036188 0.132997
0.139933 0.050328 0.075124
0.097799 0.009160 0.139498
0.133407 0.086362 0.137587
0.098123 0.043886 0.141671
0.034398 0.041922 0.045381
0.086315 0.024250 0.176614
0.137583 0.037372 0.182264
0.031937 0.064014 0.201296
0.144567 0.073273 0.203104
0.043706 0.033099 0.244890
0.099362 0.044476 0.199992
0.123194 0.078449 0.239433
0.100020 0.079156 0.200597
0.052324 0.038827 0.349903
0.126634 0.027031 0.332573
0.039771 0.069478 0.325920
0.117095 0.086526 0.335239
0.098965 0.041372 0.434954
0.120059 0.055010 0.437553
0.029678 0.069499 0.438143
0.137695 0.084405 0.421014
0.140711 0.081236 0.056213
0.156008 0.086604 0.086205
0.082287 0.016008 0.057208
0.144851 0.030245 0.098707
0.086383 0.072143 0.028379
0.168941 0.083381 0.100396
0.098647 0.002900 0.042457
0.172356 0.038710 0.133372
0.000726 0.007646 0.048379
0.134218 0.075880 0.097720
0.099955 0.057763 0.100011
0.134604 0.030365 0.056407
0.049032 0.085960 0.075814
0.050496 0.094657 0.101381
0.097582 0.028111 0.135535
0.092615 0.056179 0.057317
0.126042 0.004973 0.181202
0.136168 0.015213 0.194988
0.095224 0.070689 0.174995
0.052102 0.046605 0.176746
0.099906 0.000738 0.199993
0.030529 0.005904 0.235268
0.099944 0.056472 0.201031
0.089041 0.075973 0.243588
0.053334 0.011629 0.310850
0.099652 0.016013 0.299995
0.099985 0.055824 0.300002
0.130798 0.052216 0.306259
0.100290 0.094242 0.430779
0.120508 0.011906 0.400190
0.095670 0.087843 0.400319
0.095191 0.091958 0.375637
0.199945 0.006461 0.100001
0.287943 0.054010 0.018311
0.218859 0.095007 0.099014
0.275207 0.094061 0.031127
0.199949 0.026409 0.100005
0.269417 0.024176 0.094191
0.220205 0.069868 0.051581
0.278375 0.077838 0.100652
0.203903 0.034488 0.044551
0.271898 0.051967 0.105114
0.200011 0.081832 0.100011
0.265670 0.093354 0.113816
0.211352 0.033760 0.139929
0.274677 0.042238 0.139154
0.203467 0.089552 0.144613
0.272800 0.087098 0.136407
0.193438 0.008053 0.177475
0.254615 0.029395 0.148392
0.182129 0.082923 0.179249
0.253177 0.074746 0.145862
0.170083 0.035563 0.245817
0.231135 0.028046 0.183691
0.141159 0.077284 0.244390
0.230599 0.081477 0.183584
0.187327 0.061629 0.337457
0.266714 0.058760 0.346014
0.176325 0.093304 0.346255
0.249429 0.002635 0.352957
0.158285 0.057009 0.457655
0.231122 0.049040 0.433157
0.154830 0.008504 0.455054
0.094326 0.004112 0.499783
0.191991 0.091213 0.099870
0.235794 0.084885 0.024465
0.155107 0.065925 0.090312
0.218129 0.041048 0.004545
0.179297 0.087932 0.020811
0.241799 0.090069 0.069475
0.174926 0.057085 0.095305
0.225911 0.047033 0.053321
0.173041 0.007143 0.061175
0.229009 0.017117 0.093270
0.171142 0.068847 0.041868
0.213668 0.067595 0.098448
0.167385 0.092664 0.072128
0.230053 0.081340 0.102538
0.184174 0.076092 0.133730
0.227100 0.045445 0.076005
0.156841 0.082464 0.146601
0.222283 0.096745 0.138197
0.143069 0.038754 0.160202
0.221863 0.051675 0.134307
0.160668 0.000098 0.210682
0.193696 0.092565 0.199085
0.153921 0.052374 0.210077
0.182831 0.032066 0.180397
0.177825 0.034666 0.285879
0.202862 0.014499 0.299985
0.153939 0.079471 0.285620
0.187246 0.088325 0.300156
0.139993 0.024711 0.369271
0.207041 0.021895 0.358033
0.131257 0.062591 0.384593
0.200974 0.092566 0.387399
0.199961 0.014466 0.100005
0.263366 0.014393 0.064034
0.199967 0.049108 0.100014
0.265159 0.070542 0.043853
0.168608 0.022634 0.020164
0.258814 0.008865 0.113935
0.198832 0.078194 0.056705
0.256899 0.053691 0.091177
0.179850 0.026934 0.063097
0.254502 0.036131 0.049981
0.207754 0.073404 0.011060
0.262455 0.070002 0.063432
0.187903 0.030874 0.145599
0.239239 0.030890 0.094566
0.200952 0.071561 0.154845
0.233864 0.072235 0.133976
0.166925 0.014496 0.167058
0.243356 0.007044 0.140153
0.178992 0.061495 0.175441
0.228149 0.066556 0.171410
0.139954 0.014862 0.240395
0.187170 0.023876 0.230272
0.167477 0.070836 0.220885
0.199983 0.065492 0.199991
0.167584 0.034207 0.354330
0.234433 0.038745 0.323532
0.146747 0.084766 0.317421
0.219668 0.086209 0.329358
0.151425 0.041953 0.413690
0.195275 0.044940 0.398586
0.181898 0.080927 0.423819
0.238313 0.080929 0.403068
0.199956 0.097024 0.100008
0.243929 0.093410 0.098963
0.199996 0.038145 0.099992
0.250184 0.054794 0.017386
0.199926 0.093611 0.060149
0.238258 0.001191 0.053262
0.180409 0.045913 0.016829
0.240816 0.044513 0.124077
0.199380 0.002738 0.022361
0.217268 0.011842 0.047464
0.191941 0.065839 0.109359
0.200031 0.062521 0.099936
0.201861 0.010350 0.138370
0.245260 0.019203 0.009765
0.185360 0.056197 0.058310
0.247476 0.073188 0.093174
0.161529 0.094961 0.166324
0.228944 0.097920 0.169066
0.158401 0.057027 0.169703
0.222695 0.040998 0.167543
0.133278 0.095640 0.227764
0.200041 0.088316 0.199985
0.134472 0.035208 0.229600
0.199988 0.051897 0.200016
0.148449 0.010318 0.317225
0.191479 0.020887 0.319273
0.163943 0.050654 0.309791
0.200021 0.059368 0.299995
0.166662 0.009272 0.395313
0.238166 0.026935 0.392425
0.167930 0.070719 0.378794
0.222122 0.062248 0.363697
0.363860 0.055570 0.097482
0.467246 0.039741 0.089247
0.352187 0.091731 0.097581
0.460794 0.095592 0.091172
0.363934 0.040572 0.016655
0.480682 0.052812 0.046920
0.341592 0.098548 0.034826
0.472461 0.003239 0.049432
0.345489 0.063451 0.102294
0.478566 0.073806 0.002057
0.348696 0.010592 0.101718
0.473988 0.022724 0.006339
0.348432 0.063210 0.142328
0.476392 0.072076 0.122991
0.360035 0.091550 0.135691
0.448020 0.021738 0.130929
0.340550 0.058831 0.193056
0.457229 0.052896 0.163472
0.354640 0.094227 0.176837
0.499777 0.006762 0.099413
0.351371 0.058848 0.262175
0.488050 0.045528 0.232474
0.353153 0.005596 0.253868
0.466800 0.099673 0.164638
0.230821 0.020188 0.230314
0.271227 0.050128 0.227774
0.213512 0.085143 0.232523
0.296430 0.088661 0.218512
0.231704 0.038060 0.279695
0.271998 0.043560 0.289511
0.233789 0.083593 0.291219
0.277141 0.094494 0.289200
0.287709 0.026136 0.051742
0.358715 0.012973 0.070628
0.299945 0.069552 0.099999
0.398982 0.069576 0.099117
0.281383 0.023757 0.004198
0.367411 0.030902 0.108458
0.301670 0.080037 0.049309
0.399849 0.047570 0.105142
0.299966 0.029232 0.099970
0.381301 0.000757 0.042262
0.284030 0.094254 0.073350
0.399999 0.067777 0.033668
0.293273 0.018125 0.136468
0.393621 0.028449 0.066385
0.299988 0.089648 0.099983
0.393911 0.050473 0.056253
0.294802 0.031294 0.176423
0.373774 0.025202 0.141158
0.295809 0.092175 0.149731
0.388129 0.069636 0.137478
0.299988 0.024660 0.203722
0.363614 0.020762 0.209426
0.300012 0.091099 0.198451
0.398645 0.092265 0.206927
0.177968 0.096972 0.234629
0.263775 0.091916 0.179152
0.181862 0.065412 0.234822
0.279222 0.063284 0.149659
0.171822 0.090193 0.256664
0.256935 0.085721 0.223581
0.156170 0.058644 0.266561
0.228814 0.042852 0.231220
0.328047 0.041243 0.075314
0.408040 0.035494 0.100013
0.328563 0.069916 0.066809
0.434727 0.067383 0.073170
0.319860 0.028107 0.100663
0.437832 0.036865 0.046196
0.317947 0.079627 0.096866
0.424628 0.094248 0.046791
0.353391 0.040576 0.053347
0.435070 0.043597 0.099218
0.328794 0.072280 0.026005
0.442227 0.074171 0.026311
0.333345 0.031921 0.129364
0.434619 0.060813 0.122098
0.321899 0.087119 0.126421
0.428989 0.085475 0.142915
0.360861 0.037485 0.167821
0.413044 0.043395 0.156094
0.319515 0.082751 0.166864
0.425754 0.081199 0.186873
0.325258 0.038326 0.233735
0.400016 0.046472 0.200002
0.336505 0.085036 0.220714
0.478408 0.078065 0.200853
0.199977 0.013061 0.200011
0.272375 0.011462 0.171275
0.237415 0.064184 0.211510
0.274720 0.067526 0.184522
0.171120 0.013142 0.274185
0.283609 0.019521 0.250163
0.198624 0.071761 0.269828
0.289318 0.069499 0.254618
0.321366 0.000253 0.074753
0.423198 0.011736 0.071608
0.294734 0.049338 0.063594
0.364080 0.075917 0.059113
0.308473 0.000115 0.004274
0.403303 0.022045 0.015897
0.321537 0.041590 0.025669
0.366329 0.079564 0.006045
0.315226 0.013873 0.046625
0.427770 0.094855 0.101298
0.300003 0.050747 0.099988
0.395070 0.087451 0.089299
0.300006 0.008184 0.099944
0.402339 0.005928 0.130923
0.307632 0.057535 0.131628
0.391088 0.002393 0.100012
0.327640 0.014945 0.147627
0.397437 0.010811 0.174189
0.315304 0.052399 0.164620
0.380781 0.071850 0.173701
0.326481 0.017539 0.190763
0.396703 0.024499 0.241761
0.300027 0.059240 0.200015
0.373877 0.062278 0.221111
0.233480 0.004571 0.201259
0.265305 0.016949 0.211947
0.200000 0.039072 0.200003
0.257673 0.045380 0.186068
0.208861 0.006622 0.261952
0.246808 0.003503 0.258601
0.201776 0.048377 0.253140
0.243280 0.066052 0.257394

CELL_TYPES 512
1
1
1
1
1
1
1
1
1
1
1
1
1
1
1
1
1
1
1
1
1
1
1
1
1
1
1
1
1
1
1
1
1
1
1
1
1
1
1
1
1
1
1
1
1
1
1
1
1
1
1
1
1
1
1
1
1
1
1
1
1
1
1
1
1
1
1
1
1
1
1
1
1
1
1
1
1
1
1
1
1
1
1
1
1
1
1
1
1
1
1
1
1
1
1
1
1
1
1
1
1
1
1
1
1
1
1
1
1
1
1
1
1
1
1
1
1
1
1
1
1
1
1
1
1
1
1
1
1
1
1
1
1
1
1
1
1
1
1
1
1
1
1
1
1
1
1
1
1
1
1
1
1
1
1
1
1
1
1
1
1
1
1
1
1
1
1
1
1
1
1
1
1
1
1
1
1
1
1
1
1
1
1
1
1
1
1
1
1
1
1
1
1
1
1
1
1
1
1
1
1
1
1
1
1
1
1
1
1
1
1
1
1
1
1
1
1
1
1
1
1
1
1
1
1
1
1
1
1
1
1
1
1
1
1
1
1
1
1
1
1
1
1
1
1
1
1
1
1
1
1
1
1
1
1
1
1
1
1
1
1
1
1
1
1
1
1
1
1
1
1
1
1
1
1
1
1
1
1
1
1
1
1
1
1
1
1
1
1
1
1
1
1
1
1
1
1
1
1
1
1
1
1
1
1
1
1
1
1
1
1
1
1
1
1
1
1
1
1
1
1
1
1
1
1
1
1
1
1
1
1
1
1
1
1
1
1
1
1
1
1
1
1
1
1
1
1
1
1
1
1
1
1
1
1
1
1
1
1
1
1
1
1
1
1
1
1
1
1
1
1
1
1
1
1
1
1
1
1
1
1
1
1
1
1
1
1
1
1
1
1
1
1
1
1
1
1
1
1
1
1
1
1
1
1
1
1
1
1
1
1
1
1
1
1
1
1
1
1
1
1
1
1
1
1
1
1
1
1
1
1
1
1
1
1
1
1
1
1
1
1
1
1
1
1
1
1
1
1
1
1
1
1
1
1
1
1
1
1
1
1
1
1
1
1
1
1
1
1
1
1
1
1
1
1
1
1
1
1
1
1
1
1
1
1
1
1
1
1
1
1
1
1
1
1
1
1
1
1
1
1
1
1
1
1
1
1
1
1
1
1
1

POINT_DATA 512
SCALARS radius float
LOOKUP_TABLE default
0.5
0.5
0.5
0.5
0.5
0.5
0.5
0.5
0.5
0.5
0.5
0.5
0.5
0.5
0.5
0.5
0.5
0.5
0.5
0.5
0.5
0.5
0.5
0.5
0.5
0.5
0.5
0.5
0.5
0.5
0.5
0.5
0.5
0.5
0.5
0.5
0.5
0.5
0.5
0.5
0.5
0.5
0.5
0.5
0.5
0.5
0.5
0.5
0.5
0.5
0.5
0.5
0.5
0.5
0.5
0.5
0.5
0.5
0.5
0.5
0.5
0.5
0.5
0.5
0.5
0.5
0.5
0.5
0.5
0.5
0.5
0.5
0.5
0.5
0.5
0.5
0.5
0.5
0.5
0.5
0.5
0.5
0.5
0.5
0.5
0.5
0.5
0.5
0.5
0.5
0.5
0.5
0.5
0.5
0.5
0.5
0.5
0.5
0.5
0.5
0.5
0.5
0.5
0.5
0.5
0.5
0.5
0.5
0.5
0.5
0.5
0.5
0.5
0.5
0.5
0.5
0.5
0.5
0.5
0.5
0.5
0.5
0.5
0.5
0.5
0.5
0.5
0.5
0.5
0.5
0.5
0.5
0.5
0.5
0.5
0.5
0.5
0.5
0.5
0.5
0.5
0.5
0.5
0.5
0.5
0.5
0.5
0.5
0.5
0.5
0.5
0.5
0.5
0.5
0.5
0.5
0.5
0.5
0.5
0.5
0.5
0.5
0.5
0.5
0.5
0.5
0.5
0.5
0.5
0.5
0.5
0.5
0.5
0.5
0.5
0.5
0.5
0.5
0.5
0.5
0.5
0.5
0.5
0.5
0.5
0.5
0.5
0.5
0.5
0.5
0.5
0.5
0.5
0.5
0.5
0.5
0.5
0.5
0.5
0.5
0.5
0.5
0.5
0.5
0.5
0.5
0.5
0.5
0.5
0.5
0.5
0.5
0.5
0.5
0.5
0.5
0.5
0.5
0.5
0.5
0.5
0.5
0.5
0.5
0.5
0.5
0.5
0.5
0.5
0.5
0.5
0.5
0.5
0.5
0.5
0.5
0.5
0.5
0.5
0.5
0.5
0.5
0.5
0.5
0.5
0.5
0.5
0.5
0.5
0.5
0.5
0.5
0.5
0.5
0.5
0.5
0.5
0.5
0.5
0.5
0.5
0.5
0.5
0.5
0.5
0.5
0.5
0.5
0.5
0.5
0.5
0.5
0.5
0.5
0.5
0.5
0.5
0.5
0.5
0.5
0.5
0.5
0.5
0.5
0.5
0.5
0.5
0.5
0.5
0.5
0.5
0.5
0.5
0.5
0.5
0.5
0.5
0.5
0.5
0.5
0.5
0.5
0.5
0.5
0.5
0.5
0.5
0.5
0.5
0.5
0.5
0.5
0.5
0.5
0.5
0.5
0.5
0.5
0.5
0.5
0.5
0.5
0.5
0.5
0.5
0.5
0.5
0.5
0.5
0.5
0.5
0.5
0.5
0.5
0.5
0.5
0.5
0.5
0.5
0.5
0.5
0.5
0.5
0.5
0.5
0.5
0.5
0.5
0.5
0.5
0.5
0.5
0.5
0.5
0.5
0.5
0.5
0.5
0.5
0.5
0.5
0.5
0.5
0.5
0.5
0.5
0.5
0.5
0.5
0.5
0.5
0.5
0.5
0.5
0.5
0.5
0.5
0.5
0.5
0.5
0.5
0.5
0.5
0.5
0.5
0.5
0.5
0.5
0.5
0.5
0.5
0.5
0.5
0.5
0.5
0.5
0.5
0.5
0.5
0.5
0.5
0.5
0.5
0.5
0.5
0.5
0.5
0.5
0.5
0.5
0.5
0.5
0.5
0.5
0.5
0.5
0.5
0.5
0.5
0.5
0.5
0.5
0.5
0.5
0.5
0.5
0.5
0.5
0.5
0.5
0.5
0.5
0.5
0.5
0.5
0.5
0.5
0.5
0.5
0.5
0.5
0.5
0.5
0.5
0.5
0.5
0.5
0.5
0.5
0.5
0.5
0.5
0.5
0.5
0.5
0.5
0.5
0.5
0.5
0.5
0.5
0.5
0.5
0.5
0.5
0.5
0.5
0.5
0.5
0.5
0.5
0.5
0.5
0.5
0.5
0.5
0.5
0.5
0.5
0.5
0.5
0.5
0.5
0.5
0.5
0.5
0.5
0.5
0.5
0.5
0.5
0.5
0.5
0.5
0.5
0.5
0.5
0.5
0.5
0.5
0.5
0.5
0.5
0.5
0.5
0.5
0.5
0.5
0.5
0.5
0.5
0.5
