# vtk DataFile Version 2.0
Title Data
ASCII
DATASET UNSTRUCTURED_GRID
POINTS 512 float
0.054267 0.067371 0.100364
0.026440 0.068854 0.040414
0.055668 0.012340 0.099750
0.126542 0.026325 0.089587
0.055267 0.075161 0.031771
0.099910 0.056877 0.107652
0.008454 0.033243 0.127471
0.066798 0.012691 0.050273
0.053626 0.028124 0.096674
0.095178 0.019364 0.056825
0.045705 0.002047 0.043467
0.100594 0.069175 0.039937
0.041301 0.035121 0.160293
0.118243 0.030628 0.164666
0.025311 0.073427 0.160201
0.076213 0.073370 0.154976
0.086408 0.067926 0.194452
0.047123 0.045983 0.196537
0.046264 0.020588 0.224456
0.050075 0.094428 0.195101
0.097261 0.079189 0.268912
0.066030 0.060454 0.261766
0.093431 0.023529 0.263294
0.063143 0.008531 0.265071
0.072238 0.092917 0.353391
0.091230 0.075607 0.356095
0.032333 0.018133 0.318387
0.080382 0.028315 0.335259
0.049830 0.069423 0.469128
0.010253 0.087458 0.462855
0.050889 0.034781 0.444955
0.007319 0.033111 0.456704
0.075433 0.060181 0.099029
0.024009 0.034546 0.038602
0.127888 0.001001 0.050379
0.065109 0.092745 0.095784
0.095046 0.040031 0.057514
0.099179 0.017810 0.077542
0.099988 0.089660 0.117376
0.099354 0.083964 0.098639
0.050185 0.082378 0.124312
0.128064 0.079722 0.026709
0.057907 0.051157 0.054742
0.124836 0.049121 0.099992
0.048254 0.097297 0.018071
0.066261 0.089974 0.141882
0.004215 0.020300 0.043427
0.132341 0.036726 0.127641
0.022543 0.017784 0.165852
0.066227 0.019478 0.168913
0.100323 0.096716 0.160940
0.126387 0.092021 0.191484
0.088533 0.007680 0.219527
0.099839 0.003799 0.227187
0.055208 0.066774 0.226862
0.126008 0.085243 0.230461
0.016449 0.059420 0.264242
0.091165 0.047451 0.267400
0.123632 0.000292 0.274316
0.099514 0.014062 0.292093
0.026831 0.039807 0.327252
0.086078 0.052156 0.359168
0.049608 0.090249 0.384199
0.097106 0.089179 0.394425
0.092876 0.047360 0.004457
0.058737 0.039287 0.125333
0.002673 0.096611 0.093347
0.075619 0.099468 0.130061
0.075148 0.050648 0.133554
0.098773 0.055645 0.023573
0.096581 0.084234 0.058024
0.103291 0.095755 0.058754
0.099237 0.009375 0.128023
0.066632 0.038315 0.090731
0.126316 0.067564 0.071406
0.098719 0.071636 0.132034
0.113689 0.018882 0.131970
0.051062 0.008780 0.127443
0.101323 0.060979 0.157166
0.081298 0.047199 0.161270
0.089122 0.057415 0.221418
0.063490 0.051915 0.172149
0.100020 0.081652 0.199949
0.002133 0.093007 0.195522
0.125826 0.046781 0.258076
0.051569 0.046945 0.247125
0.102584 0.094072 0.258321
0.081731 0.091770 0.252664
0.032371 0.076512 0.321410
0.055961 0.060207 0.321629
0.039235 0.092706 0.289068
0.058414 0.005862 0.310929
0.057712 0.061715 0.396176
0.021961 0.064581 0.425485
0.038757 0.099372 0.423048
0.099958 0.038415 0.404298
0.099928 0.066436 0.099387
0.037308 0.081672 0.068095
0.099037 0.002192 0.122555
0.092185 0.013799 0.097240
0.076054 0.079463 0.043347
0.087736 0.089597 0.131498
0.052721 0.004699 0.082500
0.007781 0.001266 0.013577
0.099978 0.098440 0.099971
0.074261 0.096064 0.063967
0.050370 0.057369 0.014079
0.060106 0.034220 0.026467
0.031899 0.096644 0.126278
0.055734 0.002022 0.159781
0.132757 0.055475 0.130925
0.129111 0.076341 0.135116
0.033764 0.021546 0.198774
0.099987 0.020715 0.196946
0.056729 0.078358 0.162906
0.102431 0.070822 0.200027
0.089651 0.024461 0.245480
0.099999 0.042155 0.233038
0.086191 0.083841 0.230741
0.019378 0.080416 0.249489
0.060556 0.031387 0.291750
0.099983 0.041768 0.299940
0.012605 0.080208 0.293395
0.096045 0.067530 0.309452
0.036649 0.034412 0.397507
0.088117 0.057188 0.387867
0.023823 0.096656 0.346099
0.099217 0.014345 0.359197
0.028122 0.039613 0.099813
0.167559 0.036057 0.097615
0.055054 0.084483 0.081884
0.182789 0.087517 0.136481
0.099998 0.026035 0.099918
0.172372 0.020875 0.130104
0.129724 0.088239 0.053235
0.145436 0.073717 0.069306
0.089468 0.059105 0.057980
0.136355 0.032437 0.070133
0.085963 0.081441 0.000009
0.160318 0.074551 0.095251
0.078214 0.025903 0.137640
0.137937 0.047994 0.147993
0.090958 0.093431 0.162864
0.137349 0.092995 0.142883
0.099967 0.052664 0.199974
0.160269 0.060802 0.200266
0.100002 0.007086 0.199989
0.146403 0.022971 0.200789
0.054719 0.082816 0.269919
0.131326 0.075668 0.268382
0.018707 0.030071 0.261107
0.131988 0.022430 0.272651
0.065976 0.087711 0.328358
0.132697 0.091339 0.335954
0.092660 0.044246 0.327454
0.129679 0.025940 0.353972
0.073472 0.100000 0.461247
0.119231 0.007920 0.465982
0.096685 0.060588 0.466106
0.115169 0.043342 0.437830
0.117746 0.086067 0.160003
0.162291 0.083363 0.118221
0.132261 0.040733 0.039148
0.133706 0.023572 0.041899
0.012142 0.084723 0.056631
0.125699 0.088608 0.097122
0.096217 0.038490 0.135851
0.168492 0.042743 0.127844
0.132444 0.095784 0.089670
0.138420 0.092601 0.122303
0.099315 0.064836 0.072739
0.021339 0.045882 0.064602
0.093064 0.098016 0.099826
0.084948 0.093804 0.031928
0.099984 0.070775 0.021749
0.043803 0.059736 0.082089
0.100137 0.038577 0.165352
0.096319 0.021087 0.164012
0.118738 0.000894 0.161390
0.138540 0.007372 0.177694
0.020235 0.045562 0.219196
0.099981 0.032547 0.200036
0.069911 0.094412 0.227526
0.032444 0.078116 0.226522
0.083972 0.068928 0.288890
0.134805 0.050578 0.284264
0.034605 0.013588 0.266591
0.099671 0.014568 0.300010
0.002143 0.036484 0.358988
0.042309 0.063008 0.359563
0.007498 0.005042 0.385347
0.005958 0.070150 0.382503
0.103048 0.005615 0.012357
0.128297 0.021718 0.108271
0.133496 0.059755 0.023983
0.161999 0.057106 0.117158
0.021227 0.020846 0.098288
0.160534 0.013512 0.069718
0.130090 0.049106 0.063602
0.170045 0.053449 0.019355
0.099980 0.037937 0.099897
0.135827 0.039667 0.001448
0.100015 0.060475 0.120212
0.128677 0.080261 0.099980
0.037717 0.041506 0.134176
0.137882 0.008270 0.133241
0.019874 0.076494 0.129051
0.072150 0.071662 0.085681
0.027444 0.058368 0.177311
0.135855 0.066894 0.180218
0.099985 0.092981 0.199990
0.142568 0.096179 0.197054
0.099346 0.067163 0.241434
0.020898 0.075242 0.197832
0.126370 0.005202 0.229798
0.070845 0.000548 0.188469
0.100004 0.073667 0.335002
0.128414 0.059548 0.324556
0.099984 0.094320 0.315427
0.110676 0.017624 0.311936
0.070874 0.068788 0.428910
0.115278 0.082712 0.422625
0.090254 0.093725 0.425754
0.133756 0.012068 0.403048
0.139558 0.002154 0.085419
0.156231 0.015346 0.004634
0.012542 0.050242 0.095270
0.165110 0.062072 0.045820
0.026875 0.098250 0.071587
0.163045 0.098891 0.099853
0.045181 0.033660 0.068886
0.172719 0.069905 0.131611
0.097303 0.049987 0.091661
0.128828 0.099281 0.028083
0.097536 0.094623 0.090981
0.136780 0.068133 0.099463
0.092044 0.022630 0.009758
0.086189 0.031790 0.044461
0.040909 0.059642 0.130909
0.029257 0.082008 0.099431
0.129255 0.043245 0.171662
0.130746 0.049199 0.196104
0.028024 0.094033 0.161549
0.101596 0.074072 0.167349
0.069545 0.043665 0.195782
0.072844 0.035253 0.226509
0.060297 0.082699 0.193345
0.039938 0.099742 0.230115
0.099982 0.048978 0.297885
0.047632 0.050884 0.290489
0.090266 0.093309 0.296951
0.121922 0.079931 0.299568
0.079689 0.024030 0.424316
0.117733 0.045003 0.393687
0.077431 0.016790 0.387486
0.051308 0.027081 0.359559
0.197850 0.032170 0.049110
0.270482 0.085968 0.067229
0.222184 0.028951 0.040200
0.267083 0.030099 0.069211
0.197452 0.065800 0.050368
0.260233 0.056020 0.029591
0.224641 0.095176 0.077032
0.273050 0.007770 0.049880
0.200042 0.065062 0.099907
0.263472 0.083259 0.106433
0.199967 0.005417 0.095419
0.267312 0.021925 0.108761
0.209381 0.062194 0.129423
0.278725 0.071196 0.134578
0.203103 0.017097 0.143054
0.270492 0.015557 0.134073
0.198638 0.039968 0.159069
0.251409 0.060855 0.145259
0.178281 0.008453 0.175274
0.248818 0.099517 0.144989
0.164452 0.067418 0.238664
0.232280 0.060798 0.177642
0.139355 0.000551 0.241942
0.231468 0.011776 0.178257
0.179928 0.089680 0.328500
0.261594 0.092443 0.323651
0.171621 0.024638 0.338603
0.249220 0.035851 0.331443
0.155438 0.087351 0.444018
0.244159 0.076562 0.411856
0.156842 0.038817 0.437344
0.071849 0.032521 0.492217
0.175197 0.028383 0.034164
0.232495 0.015185 0.068547
0.158825 0.093354 0.011995
0.229703 0.067668 0.061735
0.173353 0.015665 0.050661
0.234177 0.017987 0.001622
0.171355 0.087655 0.033094
0.227875 0.079088 0.094138
0.165957 0.047331 0.080775
0.216220 0.047673 0.018932
0.165746 0.095211 0.065722
0.209744 0.097907 0.029577
0.157071 0.024597 0.098836
0.230365 0.008212 0.104744
0.184216 0.100000 0.130660
0.214367 0.072421 0.009376
0.157009 0.010103 0.144017
0.222999 0.028520 0.126810
0.144706 0.072103 0.159708
0.216337 0.081100 0.122583
0.163686 0.035784 0.206405
0.198632 0.029664 0.200006
0.157179 0.080300 0.205386
0.180537 0.061807 0.170501
0.178015 0.067376 0.273040
0.199999 0.045155 0.299088
0.160169 0.001965 0.285337
0.187218 0.015439 0.296487
0.132718 0.057739 0.359169
0.205809 0.051886 0.344061
0.122687 0.087519 0.373845
0.198391 0.022904 0.373707
0.200185 0.051162 0.098991
0.260741 0.041678 0.005846
0.198294 0.083158 0.078549
0.260685 0.097451 0.093010
0.167323 0.053174 0.065170
0.256056 0.044295 0.112862
0.195091 0.098885 0.100045
0.256332 0.083044 0.026002
0.176803 0.062297 0.099836
0.248171 0.065754 0.095703
0.197636 0.099310 0.065244
0.256245 0.095568 0.100130
0.191753 0.060440 0.148058
0.235529 0.066804 0.040721
0.201147 0.094848 0.153638
0.230820 0.098044 0.126081
0.165193 0.045784 0.165114
0.242873 0.040521 0.140988
0.176591 0.089160 0.171081
0.225372 0.091873 0.163059
0.136822 0.047371 0.237829
0.185122 0.056571 0.233698
0.166681 0.094609 0.214419
0.200028 0.093508 0.199686
0.166017 0.064946 0.345645
0.230006 0.070752 0.309188
0.143905 0.013726 0.314175
0.210860 0.014873 0.315694
0.149889 0.071140 0.402508
0.192889 0.072538 0.384135
0.179782 0.008093 0.410814
0.238668 0.011708 0.384388
0.200006 0.020467 0.095581
0.245055 0.028210 0.051663
0.200031 0.076747 0.099969
0.236898 0.087330 0.064702
0.198041 0.028929 0.099923
0.242625 0.032541 0.093432
0.163719 0.081900 0.055946
0.237181 0.074036 0.124644
0.200110 0.036379 0.095400
0.205601 0.049687 0.064856
0.200064 0.092939 0.100027
0.199005 0.089310 0.035474
0.202658 0.042314 0.112726
0.237818 0.050383 0.082438
0.175389 0.085586 0.092121
0.241277 0.098045 0.037671
0.163656 0.024985 0.167642
0.220610 0.033469 0.162097
0.158613 0.086045 0.164301
0.219901 0.074978 0.162624
0.125683 0.030298 0.216855
0.199852 0.010930 0.199246
0.131174 0.066433 0.224429
0.200005 0.080964 0.199740
0.148175 0.043173 0.311536
0.189115 0.054149 0.307042
0.158717 0.080269 0.302526
0.199979 0.085169 0.295977
0.162467 0.040355 0.382269
0.236501 0.056970 0.372711
0.161088 0.096392 0.368355
0.219152 0.091558 0.348637
0.355924 0.087063 0.046368
0.470263 0.063762 0.046877
0.339593 0.023887 0.051065
0.452823 0.029839 0.061247
0.359014 0.070225 0.064636
0.466656 0.088076 0.011490
0.335205 0.028449 0.092498
0.456275 0.033604 0.013590
0.340120 0.090225 0.093356
0.476223 0.096788 0.064527
0.336971 0.046887 0.085838
0.461788 0.059427 0.095017
0.339825 0.092884 0.134935
0.471642 0.003213 0.115118
0.353915 0.024800 0.131604
0.429888 0.054295 0.115828
0.334979 0.086949 0.183678
0.446088 0.081959 0.147934
0.345136 0.022520 0.171821
0.497844 0.037772 0.077370
0.335632 0.091623 0.253985
0.450454 0.065095 0.191410
0.337907 0.040355 0.247622
0.457076 0.036796 0.146299
0.221413 0.050264 0.223296
0.267864 0.077814 0.228014
0.211210 0.016759 0.223078
0.284039 0.022871 0.218630
0.226986 0.065626 0.268349
0.268478 0.073901 0.280975
0.235031 0.012529 0.285591
0.274738 0.026214 0.287452
0.275664 0.066214 0.094208
0.347268 0.043952 0.025571
0.294921 0.093369 0.055181
0.400005 0.001660 0.062667
0.272151 0.056801 0.059194
0.360646 0.063528 0.103981
0.291681 0.000002 0.098968
0.400022 0.084286 0.093075
0.295489 0.059531 0.052977
0.371523 0.034349 0.099021
0.280363 0.021163 0.024496
0.379390 0.094653 0.093750
0.291332 0.051758 0.123607
0.382392 0.058193 0.029627
0.300034 0.013343 0.099050
0.389796 0.084839 0.021153
0.289791 0.059914 0.164412
0.371270 0.061640 0.127600
0.293104 0.028664 0.145468
0.378154 0.095417 0.128479
0.299998 0.058562 0.199972
0.354451 0.050070 0.203361
0.299991 0.020396 0.193978
0.393783 0.023133 0.199989
0.172405 0.026913 0.231069
0.262308 0.020730 0.178005
0.184363 0.094860 0.231356
0.270583 0.090555 0.144435
0.164533 0.022362 0.252692
0.254676 0.011033 0.218711
0.156252 0.085951 0.258851
0.226425 0.074967 0.222273
0.320263 0.072195 0.022771
0.400007 0.066771 0.079048
0.316556 0.003410 0.009860
0.430088 0.099370 0.035963
0.324603 0.063484 0.055800
0.423366 0.067991 0.001964
0.318162 0.005716 0.049423
0.408696 0.023280 0.000173
0.344623 0.073212 0.099037
0.432007 0.072795 0.060162
0.329846 0.096229 0.078468
0.439840 0.001628 0.090549
0.323615 0.065379 0.129401
0.413643 0.084604 0.102529
0.315527 0.015150 0.118667
0.419767 0.012862 0.136898
0.354918 0.067261 0.161895
0.403469 0.072491 0.144098
0.307788 0.009671 0.159536
0.415220 0.011067 0.181264
0.313833 0.071058 0.220876
0.395101 0.070706 0.189135
0.324824 0.015109 0.213507
0.461616 0.010544 0.183613
0.199970 0.048358 0.199989
0.268169 0.040617 0.169156
0.229611 0.091793 0.205876
0.269367 0.092357 0.180098
0.167184 0.043424 0.271235
0.291041 0.049346 0.250019
0.199149 0.002516 0.262563
0.290146 0.100000 0.251529
0.303995 0.038120 0.028522
0.418494 0.043625 0.040737
0.289535 0.079226 0.017926
0.353022 0.007102 0.007555
0.298786 0.028338 0.074513
0.397324 0.045842 0.078889
0.310610 0.071015 0.093466
0.362823 0.009243 0.087208
0.302918 0.043329 0.099972
0.417911 0.027366 0.090312
0.299982 0.084536 0.097825
0.383302 0.017192 0.035895
0.294468 0.050963 0.089735
0.398430 0.030868 0.116279
0.300017 0.092119 0.115194
0.372477 0.035308 0.062612
0.328895 0.046056 0.139129
0.386372 0.039462 0.159397
0.308669 0.083331 0.156425
0.373651 0.097869 0.165950
0.319158 0.049405 0.180662
0.384591 0.055535 0.234075
0.298753 0.088660 0.200002
0.363566 0.093557 0.214310
0.232524 0.038386 0.198950
0.264413 0.053663 0.208866
0.199984 0.066456 0.199954
0.256527 0.076199 0.184187
0.208564 0.035930 0.258142
0.250268 0.039214 0.249888
0.201549 0.081565 0.246694
0.242372 0.095878 0.252052

CELL_TYPES 512
1
1
1
1
1
1
1
1
1
1
1
1
1
1
1
1
1
1
1
1
1
1
1
1
1
1
1
1
1
1
1
1
1
1
1
1
1
1
1
1
1
1
1
1
1
1
1
1
1
1
1
1
1
1
1
1
1
1
1
1
1
1
1
1
1
1
1
1
1
1
1
1
1
1
1
1
1
1
1
1
1
1
1
1
1
1
1
1
1
1
1
1
1
1
1
1
1
1
1
1
1
1
1
1
1
1
1
1
1
1
1
1
1
1
1
1
1
1
1
1
1
1
1
1
1
1
1
1
1
1
1
1
1
1
1
1
1
1
1
1
1
1
1
1
1
1
1
1
1
1
1
1
1
1
1
1
1
1
1
1
1
1
1
1
1
1
1
1
1
1
1
1
1
1
1
1
1
1
1
1
1
1
1
1
1
1
1
1
1
1
1
1
1
1
1
1
1
1
1
1
1
1
1
1
1
1
1
1
1
1
1
1
1
1
1
1
1
1
1
1
1
1
1
1
1
1
1
1
1
1
1
1
1
1
1
1
1
1
1
1
1
1
1
1
1
1
1
1
1
1
1
1
1
1
1
1
1
1
1
1
1
1
1
1
1
1
1
1
1
1
1
1
1
1
1
1
1
1
1
1
1
1
1
1
1
1
1
1
1
1
1
1
1
1
1
1
1
1
1
1
1
1
1
1
1
1
1
1
1
1
1
1
1
1
1
1
1
1
1
1
1
1
1
1
1
1
1
1
1
1
1
1
1
1
1
1
1
1
1
1
1
1
1
1
1
1
1
1
1
1
1
1
1
1
1
1
1
1
1
1
1
1
1
1
1
1
1
1
1
1
1
1
1
1
1
1
1
1
1
1
1
1
1
1
1
1
1
1
1
1
1
1
1
1
1
1
1
1
1
1
1
1
1
1
1
1
1
1
1
1
1
1
1
1
1
1
1
1
1
1
1
1
1
1
1
1
1
1
1
1
1
1
1
1
1
1
1
1
1
1
1
1
1
1
1
1
1
1
1
1
1
1
1
1
1
1
1
1
1
1
1
1
1
1
1
1
1
1
1
1
1
1
1
1
1
1
1
1
1
1
1
1
1
1
1
1
1
1
1
1
1
1
1
1
1
1
1
1
1
1
1
1
1
1
1
1
1
1
1
1
1
1

POINT_DATA 512
SCALARS radius float
LOOKUP_TABLE default
0.5
0.5
0.5
0.5
0.5
0.5
0.5
0.5
0.5
0.5
0.5
0.5
0.5
0.5
0.5
0.5
0.5
0.5
0.5
0.5
0.5
0.5
0.5
0.5
0.5
0.5
0.5
0.5
0.5
0.5
0.5
0.5
0.5
0.5
0.5
0.5
0.5
0.5
0.5
0.5
0.5
0.5
0.5
0.5
0.5
0.5
0.5
0.5
0.5
0.5
0.5
0.5
0.5
0.5
0.5
0.5
0.5
0.5
0.5
0.5
0.5
0.5
0.5
0.5
0.5
0.5
0.5
0.5
0.5
0.5
0.5
0.5
0.5
0.5
0.5
0.5
0.5
0.5
0.5
0.5
0.5
0.5
0.5
0.5
0.5
0.5
0.5
0.5
0.5
0.5
0.5
0.5
0.5
0.5
0.5
0.5
0.5
0.5
0.5
0.5
0.5
0.5
0.5
0.5
0.5
0.5
0.5
0.5
0.5
0.5
0.5
0.5
0.5
0.5
0.5
0.5
0.5
0.5
0.5
0.5
0.5
0.5
0.5
0.5
0.5
0.5
0.5
0.5
0.5
0.5
0.5
0.5
0.5
0.5
0.5
0.5
0.5
0.5
0.5
0.5
0.5
0.5
0.5
0.5
0.5
0.5
0.5
0.5
0.5
0.5
0.5
0.5
0.5
0.5
0.5
0.5
0.5
0.5
0.5
0.5
0.5
0.5
0.5
0.5
0.5
0.5
0.5
0.5
0.5
0.5
0.5
0.5
0.5
0.5
0.5
0.5
0.5
0.5
0.5
0.5
0.5
0.5
0.5
0.5
0.5
0.5
0.5
0.5
0.5
0.5
0.5
0.5
0.5
0.5
0.5
0.5
0.5
0.5
0.5
0.5
0.5
0.5
0.5
0.5
0.5
0.5
0.5
0.5
0.5
0.5
0.5
0.5
0.5
0.5
0.5
0.5
0.5
0.5
0.5
0.5
0.5
0.5
0.5
0.5
0.5
0.5
0.5
0.5
0.5
0.5
0.5
0.5
0.5
0.5
0.5
0.5
0.5
0.5
0.5
0.5
0.5
0.5
0.5
0.5
0.5
0.5
0.5
0.5
0.5
0.5
0.5
0.5
0.5
0.5
0.5
0.5
0.5
0.5
0.5
0.5
0.5
0.5
0.5
0.5
0.5
0.5
0.5
0.5
0.5
0.5
0.5
0.5
0.5
0.5
0.5
0.5
0.5
0.5
0.5
0.5
0.5
0.5
0.5
0.5
0.5
0.5
0.5
0.5
0.5
0.5
0.5
0.5
0.5
0.5
0.5
0.5
0.5
0.5
0.5
0.5
0.5
0.5
0.5
0.5
0.5
0.5
0.5
0.5
0.5
0.5
0.5
0.5
0.5
0.5
0.5
0.5
0.5
0.5
0.5
0.5
0.5
0.5
0.5
0.5
0.5
0.5
0.5
0.5
0.5
0.5
0.5
0.5
0.5
0.5
0.5
0.5
0.5
0.5
0.5
0.5
0.5
0.5
0.5
0.5
0.5
0.5
0.5
0.5
0.5
0.5
0.5
0.5
0.5
0.5
0.5
0.5
0.5
0.5
0.5
0.5
0.5
0.5
0.5
0.5
0.5
0.5
0.5
0.5
0.5
0.5
0.5
0.5
0.5
0.5
0.5
0.5
0.5
0.5
0.5
0.5
0.5
0.5
0.5
0.5
0.5
0.5
0.5
0.5
0.5
0.5
0.5
0.5
0.5
0.5
0.5
0.5
0.5
0.5
0.5
0.5
0.5
0.5
0.5
0.5
0.5
0.5
0.5
0.5
0.5
0.5
0.5
0.5
0.5
0.5
0.5
0.5
0.5
0.5
0.5
0.5
0.5
0.5
0.5
0.5
0.5
0.5
0.5
0.5
0.5
0.5
0.5
0.5
0.5
0.5
0.5
0.5
0.5
0.5
0.5
0.5
0.5
0.5
0.5
0.5
0.5
0.5
0.5
0.5
0.5
0.5
0.5
0.5
0.5
0.5
0.5
0.5
0.5
0.5
0.5
0.5
0.5
0.5
0.5
0.5
0.5
0.5
0.5
0.5
0.5
0.5
0.5
0.5
0.5
0.5
0.5
0.5
0.5
0.5
0.5
0.5
0.5
0.5
0.5
0.5
0.5
0.5
0.5
0.5
0.5
0.5
0.5
0.5
0.5
0.5
0.5
0.5
0.5
0.5
0.5
0.5
0.5
0.5
0.5
0.5
0.5
0.5
0.5
0.5
0.5
0.5
0.5
0.5
