# vtk DataFile Version 2.0
Title Data
ASCII
DATASET UNSTRUCTURED_GRID
POINTS 512 float
0.009047 0.018386 0.009060
0.058110 0.019079 0.007992
0.013904 0.075382 0.013926
0.059805 0.071789 0.010532
0.007964 0.019081 0.058123
0.055295 0.017558 0.055324
0.010514 0.071781 0.059824
0.058159 0.070163 0.058184
0.017596 0.079971 0.144053
0.068046 0.080053 0.142473
0.019211 0.031527 0.138397
0.068839 0.030872 0.135538
0.017406 0.086051 0.199852
0.065976 0.085127 0.196819
0.019025 0.028993 0.196404
0.074281 0.027232 0.193826
0.015811 0.000130 0.262657
0.064782 0.000249 0.260388
0.015501 0.057829 0.260312
0.061543 0.057714 0.257176
0.015193 0.008203 0.339011
0.063740 0.007589 0.336902
0.015061 0.058303 0.334419
0.063772 0.057504 0.332561
0.016093 0.051935 0.644547
0.064872 0.051813 0.646687
0.015783 0.097921 0.639155
0.064957 0.098153 0.641618
0.014680 0.051759 0.726073
0.063418 0.051505 0.728347
0.014734 0.002481 0.723421
0.063523 0.002356 0.725737
0.015573 0.088279 0.015598
0.068662 0.085413 0.017087
0.011862 0.034911 0.011900
0.058830 0.034115 0.012627
0.017044 0.085417 0.068688
0.069841 0.082948 0.069888
0.012583 0.034118 0.058873
0.059449 0.032332 0.059504
0.014965 0.045480 0.097133
0.061274 0.043700 0.095528
0.010823 0.000265 0.094811
0.058608 0.000028 0.092161
0.010138 0.042458 0.157345
0.055763 0.040816 0.156509
0.006497 0.094844 0.155367
0.051518 0.093715 0.153155
0.013514 0.073251 0.218730
0.059479 0.072042 0.216722
0.013401 0.040199 0.213897
0.058070 0.038762 0.211826
0.013595 0.068165 0.284015
0.059102 0.067227 0.282133
0.009116 0.029802 0.277233
0.052054 0.028188 0.274941
0.014981 0.023764 0.582500
0.063845 0.023657 0.584323
0.014949 0.082933 0.578338
0.063786 0.082934 0.580105
0.013462 0.008361 0.667256
0.058500 0.007857 0.669558
0.011566 0.066472 0.675826
0.055321 0.066097 0.678255
0.099804 0.099035 0.099788
0.046734 0.095806 0.097568
0.001335 0.053299 0.001344
0.051085 0.050685 0.099664
0.097517 0.095807 0.046755
0.046659 0.094181 0.046694
0.099619 0.050685 0.051106
0.048878 0.048872 0.048904
0.015226 0.074778 0.120825
0.064311 0.073862 0.119545
0.015266 0.006050 0.129522
0.063124 0.005645 0.129000
0.015595 0.070666 0.184186
0.066153 0.069404 0.182254
0.007683 0.003280 0.194194
0.055111 0.002249 0.193335
0.015332 0.094836 0.242017
0.063455 0.094660 0.240089
0.016531 0.036285 0.246853
0.066535 0.035903 0.244332
0.015902 0.093284 0.309368
0.065247 0.092909 0.307079
0.016435 0.041786 0.311150
0.064890 0.041218 0.309063
0.014639 0.038110 0.631912
0.062962 0.037805 0.634080
0.015083 0.081457 0.622344
0.063334 0.081087 0.624097
0.015507 0.043876 0.691966
0.065310 0.043662 0.694232
0.014873 0.085332 0.698665
0.062933 0.085398 0.701669
0.024359 0.001972 0.024386
0.072374 0.100000 0.018022
0.022682 0.063362 0.022705
0.079026 0.066041 0.020127
0.017979 0.100000 0.072416
0.069175 0.098489 0.069209
0.020100 0.066058 0.079045
0.075582 0.063856 0.075599
0.010857 0.050674 0.117949
0.057549 0.049805 0.117261
0.011845 0.004498 0.110992
0.058810 0.001345 0.110328
0.009065 0.054730 0.173172
0.054377 0.052937 0.172354
0.014451 0.006057 0.169941
0.062118 0.003685 0.169353
0.015230 0.078068 0.244134
0.063339 0.077485 0.242027
0.014858 0.027974 0.230339
0.062851 0.026861 0.228655
0.013906 0.083253 0.292074
0.059782 0.082378 0.291224
0.014964 0.021803 0.295380
0.065378 0.020404 0.292977
0.014745 0.017156 0.615024
0.063354 0.016990 0.616857
0.014841 0.064258 0.600742
0.063637 0.063949 0.602566
0.013728 0.023934 0.682126
0.060095 0.024309 0.684961
0.012494 0.080491 0.658120
0.058180 0.080748 0.659606
0.144044 0.079737 0.017647
0.199800 0.086055 0.017448
0.138359 0.031470 0.019248
0.196364 0.028997 0.019060
0.142437 0.080051 0.068085
0.196802 0.085126 0.066062
0.135499 0.030869 0.068875
0.193793 0.027237 0.074340
0.142069 0.085704 0.142114
0.192715 0.088120 0.141577
0.137916 0.035473 0.137959
0.194110 0.031481 0.139412
0.141515 0.088122 0.192755
0.193250 0.089549 0.193300
0.139351 0.031476 0.194145
0.192315 0.036966 0.192378
0.143472 0.013178 0.254086
0.188830 0.011666 0.252941
0.138755 0.066262 0.251477
0.188665 0.066666 0.247427
0.138975 0.019331 0.322821
0.185798 0.020226 0.323619
0.135387 0.066407 0.321368
0.184058 0.066719 0.321009
0.139591 0.054823 0.650374
0.192042 0.055786 0.648634
0.136736 0.003041 0.648131
0.190066 0.002815 0.645213
0.125246 0.056386 0.731851
0.174514 0.057669 0.728722
0.125001 0.005886 0.730050
0.173366 0.006471 0.726721
0.097103 0.045453 0.014988
0.157323 0.042426 0.010173
0.094778 0.000285 0.010813
0.155304 0.094844 0.006486
0.095491 0.043701 0.061311
0.156474 0.040816 0.055802
0.092121 0.000046 0.058617
0.153120 0.093716 0.051543
0.099973 0.053255 0.099999
0.153612 0.051888 0.097168
0.099564 0.011925 0.099599
0.154748 0.003542 0.094518
0.097124 0.051890 0.153648
0.154875 0.053067 0.154922
0.094472 0.003539 0.154783
0.155180 0.097218 0.155229
0.099686 0.085371 0.213304
0.155235 0.084516 0.213678
0.099214 0.043211 0.205218
0.154002 0.046295 0.207122
0.097254 0.082303 0.271647
0.152899 0.081784 0.274742
0.094820 0.038939 0.274842
0.151439 0.036511 0.277543
0.120835 0.026554 0.593657
0.169663 0.026880 0.590087
0.118703 0.083178 0.587807
0.168041 0.083374 0.583981
0.099613 0.014312 0.674098
0.156000 0.016343 0.673530
0.096784 0.069527 0.677618
0.155412 0.070493 0.677311
0.120763 0.074810 0.015249
0.184224 0.070700 0.015630
0.129494 0.006036 0.015293
0.194146 0.003282 0.007704
0.119512 0.073862 0.064335
0.182222 0.069404 0.066203
0.128959 0.005650 0.063150
0.193305 0.002251 0.055160
0.121641 0.079180 0.121683
0.182626 0.075553 0.113715
0.127349 0.017744 0.127388
0.180033 0.018966 0.124186
0.113658 0.075560 0.182690
0.186206 0.071514 0.186261
0.124130 0.018965 0.180070
0.183504 0.012457 0.183557
0.116433 0.004933 0.236811
0.179603 0.002852 0.227561
0.119261 0.049268 0.242764
0.177108 0.046559 0.238706
0.118766 0.004287 0.298264
0.180363 0.002400 0.288615
0.122600 0.054093 0.294736
0.186472 0.052950 0.289222
0.109186 0.044767 0.644336
0.170444 0.044159 0.638834
0.105880 0.086890 0.635504
0.163667 0.087969 0.631171
0.129627 0.047665 0.696566
0.179602 0.048732 0.694257
0.133708 0.088747 0.701863
0.191334 0.089744 0.699792
0.117926 0.050711 0.010860
0.173123 0.054707 0.009095
0.110947 0.004485 0.011866
0.169948 0.005984 0.014519
0.117224 0.049800 0.057569
0.172319 0.052937 0.054412
0.110286 0.001323 0.058842
0.169315 0.003677 0.062171
0.119351 0.056798 0.119393
0.169973 0.058589 0.121524
0.111076 0.007755 0.111116
0.167786 0.007110 0.110073
0.121475 0.058591 0.170013
0.168768 0.061111 0.168816
0.110019 0.007112 0.167819
0.164733 0.013665 0.164782
0.121540 0.086578 0.236970
0.171614 0.087319 0.237652
0.113796 0.041575 0.225157
0.163090 0.041400 0.226168
0.121802 0.088982 0.284725
0.171473 0.088153 0.291694
0.114773 0.034334 0.279718
0.165447 0.040268 0.285717
0.110904 0.023014 0.627523
0.164854 0.024495 0.623852
0.120884 0.070678 0.615082
0.170611 0.071529 0.612256
0.122648 0.027835 0.688547
0.180956 0.028311 0.686359
0.118002 0.082466 0.672188
0.169886 0.084671 0.670262
0.262624 0.000128 0.015849
0.338976 0.008199 0.015233
0.260273 0.057825 0.015539
0.334384 0.058301 0.015101
0.260357 0.000246 0.064832
0.336873 0.007584 0.063791
0.257128 0.057708 0.061601
0.332549 0.057494 0.063824
0.254058 0.013182 0.143554
0.322794 0.019329 0.139064
0.251449 0.066258 0.138835
0.321339 0.066405 0.135477
0.252910 0.011661 0.188911
0.323594 0.020223 0.185897
0.247393 0.066664 0.188743
0.320985 0.066716 0.184158
0.243992 0.002605 0.244047
0.309535 0.010493 0.247687
0.241910 0.057039 0.241965
0.309985 0.057815 0.242421
0.247619 0.010493 0.309575
0.294920 0.008236 0.294974
0.242349 0.057813 0.310028
0.292048 0.058796 0.292113
0.249625 0.055253 0.647937
0.310731 0.056906 0.647751
0.244598 0.002068 0.640890
0.307815 0.002401 0.643460
0.242891 0.056443 0.722467
0.292130 0.056332 0.719332
0.240565 0.005835 0.721536
0.288403 0.005351 0.718418
0.218689 0.073244 0.013537
0.283980 0.068163 0.013627
0.213862 0.040193 0.013420
0.277201 0.029808 0.009153
0.216686 0.072041 0.059514
0.282072 0.067236 0.059154
0.211790 0.038762 0.058102
0.274910 0.028191 0.052100
0.213278 0.085372 0.099696
0.271618 0.082305 0.097323
0.205186 0.043202 0.099263
0.274819 0.038942 0.094880
0.213645 0.084514 0.155303
0.274716 0.081781 0.152991
0.207092 0.046292 0.154077
0.277522 0.036509 0.151538
0.199943 0.072431 0.199994
0.263605 0.078647 0.204149
0.199854 0.029757 0.199885
0.265682 0.034340 0.204099
0.204073 0.078644 0.263648
0.258746 0.075547 0.258806
0.204015 0.034342 0.265726
0.262228 0.016928 0.262292
0.225261 0.025301 0.589045
0.273958 0.027438 0.589134
0.223085 0.082780 0.583394
0.272277 0.088567 0.585071
0.208660 0.015506 0.667000
0.266466 0.017838 0.666926
0.203184 0.073871 0.668808
0.265542 0.088157 0.667919
0.241984 0.094836 0.015367
0.309333 0.093283 0.015944
0.246814 0.036292 0.016563
0.311113 0.041783 0.016475
0.240060 0.094660 0.063504
0.307037 0.092919 0.065296
0.244299 0.035900 0.066579
0.309043 0.041180 0.064957
0.236780 0.004932 0.116508
0.298237 0.004283 0.118851
0.242733 0.049265 0.119337
0.294702 0.054089 0.122688
0.227521 0.002855 0.179684
0.288593 0.002399 0.180457
0.238676 0.046557 0.177188
0.289205 0.052949 0.186582
0.221791 0.095897 0.221853
0.291228 0.095245 0.222340
0.228253 0.039646 0.228306
0.281556 0.044307 0.231700
0.222261 0.095245 0.291270
0.284891 0.092844 0.284927
0.231620 0.044306 0.281598
0.282058 0.041736 0.282076
0.224300 0.044643 0.636054
0.286281 0.043308 0.631880
0.218226 0.087055 0.631278
0.277157 0.084625 0.629329
0.225504 0.047339 0.689132
0.274180 0.047111 0.689370
0.237801 0.088100 0.694827
0.300231 0.084532 0.689673
0.244094 0.078065 0.015265
0.292039 0.083255 0.013951
0.230301 0.027942 0.014898
0.295340 0.021786 0.015008
0.241993 0.077486 0.063388
0.291219 0.082144 0.059841
0.228621 0.026857 0.062896
0.292940 0.020400 0.065432
0.236938 0.086576 0.121614
0.284694 0.088980 0.121885
0.225123 0.041579 0.113872
0.279690 0.034335 0.114856
0.237615 0.087317 0.171691
0.291667 0.088151 0.171573
0.226132 0.041401 0.163172
0.285689 0.040273 0.165545
0.224745 0.079618 0.224800
0.274931 0.079587 0.227929
0.214668 0.033636 0.214731
0.273106 0.024998 0.221794
0.227864 0.079587 0.274974
0.274671 0.080287 0.274715
0.221716 0.024998 0.273147
0.268298 0.033830 0.268354
0.219055 0.024336 0.622301
0.272260 0.021826 0.624414
0.224984 0.071994 0.611446
0.273112 0.068987 0.608549
0.235892 0.025897 0.682509
0.297135 0.025572 0.678608
0.229242 0.078259 0.668249
0.281727 0.072186 0.669696
0.644591 0.051939 0.016059
0.726112 0.051762 0.014646
0.639200 0.097921 0.015759
0.723458 0.002484 0.014697
0.646656 0.051808 0.064796
0.728319 0.051509 0.063363
0.641601 0.098153 0.064926
0.725710 0.002357 0.063471
0.650142 0.054824 0.139448
0.731647 0.056387 0.125115
0.647893 0.003044 0.136596
0.729847 0.005897 0.124873
0.648408 0.055785 0.191889
0.728516 0.057671 0.174378
0.645014 0.002816 0.189922
0.726517 0.006478 0.173234
0.647775 0.055256 0.249434
0.722284 0.056448 0.242699
0.640725 0.002074 0.244411
0.721344 0.005839 0.240377
0.647582 0.056898 0.310529
0.719167 0.056336 0.291943
0.643285 0.002404 0.307611
0.718272 0.005370 0.288218
0.335152 0.013986 0.335578
0.405568 0.019317 0.339629
0.331604 0.067101 0.332043
0.410965 0.068095 0.334087
0.339198 0.019314 0.406028
0.397320 0.019519 0.397681
0.333671 0.068095 0.411428
0.392031 0.067049 0.392428
0.582543 0.023767 0.014949
0.667301 0.008364 0.013410
0.578383 0.082934 0.014916
0.675873 0.066475 0.011544
0.584303 0.023661 0.063793
0.669540 0.007860 0.058402
0.580088 0.082936 0.063735
0.678238 0.066099 0.055291
0.593394 0.026560 0.120700
0.673842 0.014334 0.099500
0.587542 0.083179 0.118567
0.677395 0.069531 0.096704
0.589850 0.026887 0.169516
0.673292 0.016354 0.155861
0.583748 0.083375 0.167892
0.677071 0.070492 0.155275
0.588878 0.025306 0.225064
0.666800 0.015503 0.208459
0.583222 0.082781 0.222885
0.668586 0.073877 0.203016
0.588995 0.027444 0.273761
0.666768 0.017845 0.266273
0.584915 0.088587 0.272074
0.667781 0.088159 0.265370
0.297725 0.085893 0.298243
0.354006 0.081063 0.283527
0.297225 0.043974 0.297725
0.358926 0.037169 0.272192
0.283099 0.081062 0.354471
0.350612 0.078378 0.351055
0.271772 0.037168 0.359397
0.349464 0.028339 0.349908
0.631958 0.038113 0.014605
0.692005 0.043879 0.015490
0.622389 0.081459 0.015048
0.698705 0.085333 0.014853
0.634059 0.037805 0.062891
0.694196 0.043665 0.065273
0.624078 0.081088 0.063258
0.701628 0.085398 0.062919
0.644089 0.044772 0.109075
0.696359 0.047666 0.129511
0.635258 0.086892 0.105774
0.701659 0.088749 0.133584
0.638601 0.044161 0.170297
0.694038 0.048742 0.179452
0.630936 0.087970 0.163525
0.699582 0.089745 0.191183
0.635885 0.044645 0.224110
0.688950 0.047342 0.225323
0.631093 0.087061 0.218058
0.694631 0.088101 0.237609
0.631745 0.043318 0.286113
0.689202 0.047113 0.273994
0.629188 0.084631 0.276978
0.689490 0.084535 0.300037
0.314244 0.006564 0.314667
0.391446 0.005967 0.298943
0.321761 0.050460 0.322168
0.378581 0.054459 0.320715
0.298526 0.005971 0.391909
0.377854 0.004998 0.378280
0.320293 0.054461 0.379045
0.376994 0.050967 0.377412
0.615067 0.017160 0.014711
0.682171 0.023940 0.013699
0.600787 0.064261 0.014809
0.658164 0.080493 0.012436
0.616833 0.016991 0.063287
0.684947 0.024309 0.060073
0.602546 0.063953 0.063586
0.659573 0.080750 0.058061
0.627271 0.023018 0.110783
0.688317 0.027838 0.122527
0.614823 0.070678 0.120758
0.671955 0.082470 0.117890
0.623623 0.024495 0.164709
0.686150 0.028320 0.180801
0.612024 0.071531 0.170471
0.670045 0.084673 0.169724
0.622121 0.024342 0.218889
0.682334 0.025902 0.235691
0.611276 0.071997 0.224799
0.668066 0.078264 0.229064
0.624269 0.021830 0.272084
0.678448 0.025574 0.296955
0.608432 0.068973 0.272925
0.669529 0.072190 0.281539
0.315728 0.084752 0.316170
0.368648 0.092112 0.320615
0.305143 0.037727 0.305780
0.364741 0.038225 0.307407
0.320181 0.092112 0.369110
0.366579 0.090034 0.367012
0.306989 0.038228 0.365203
0.362834 0.040997 0.363278

CELL_TYPES 512
1
1
1
1
1
1
1
1
1
1
1
1
1
1
1
1
1
1
1
1
1
1
1
1
1
1
1
1
1
1
1
1
1
1
1
1
1
1
1
1
1
1
1
1
1
1
1
1
1
1
1
1
1
1
1
1
1
1
1
1
1
1
1
1
1
1
1
1
1
1
1
1
1
1
1
1
1
1
1
1
1
1
1
1
1
1
1
1
1
1
1
1
1
1
1
1
1
1
1
1
1
1
1
1
1
1
1
1
1
1
1
1
1
1
1
1
1
1
1
1
1
1
1
1
1
1
1
1
1
1
1
1
1
1
1
1
1
1
1
1
1
1
1
1
1
1
1
1
1
1
1
1
1
1
1
1
1
1
1
1
1
1
1
1
1
1
1
1
1
1
1
1
1
1
1
1
1
1
1
1
1
1
1
1
1
1
1
1
1
1
1
1
1
1
1
1
1
1
1
1
1
1
1
1
1
1
1
1
1
1
1
1
1
1
1
1
1
1
1
1
1
1
1
1
1
1
1
1
1
1
1
1
1
1
1
1
1
1
1
1
1
1
1
1
1
1
1
1
1
1
1
1
1
1
1
1
1
1
1
1
1
1
1
1
1
1
1
1
1
1
1
1
1
1
1
1
1
1
1
1
1
1
1
1
1
1
1
1
1
1
1
1
1
1
1
1
1
1
1
1
1
1
1
1
1
1
1
1
1
1
1
1
1
1
1
1
1
1
1
1
1
1
1
1
1
1
1
1
1
1
1
1
1
1
1
1
1
1
1
1
1
1
1
1
1
1
1
1
1
1
1
1
1
1
1
1
1
1
1
1
1
1
1
1
1
1
1
1
1
1
1
1
1
1
1
1
1
1
1
1
1
1
1
1
1
1
1
1
1
1
1
1
1
1
1
1
1
1
1
1
1
1
1
1
1
1
1
1
1
1
1
1
1
1
1
1
1
1
1
1
1
1
1
1
1
1
1
1
1
1
1
1
1
1
1
1
1
1
1
1
1
1
1
1
1
1
1
1
1
1
1
1
1
1
1
1
1
1
1
1
1
1
1
1
1
1
1
1
1
1
1
1
1
1
1
1
1
1
1
1
1
1
1
1
1
1
1
1
1
1
1
1
1
1
1
1
1
1
1
1
1
1
1
1
1
1
1
1
1
1
1
1

POINT_DATA 512
SCALARS radius float
LOOKUP_TABLE default
0.5
0.5
0.5
0.5
0.5
0.5
0.5
0.5
0.5
0.5
0.5
0.5
0.5
0.5
0.5
0.5
0.5
0.5
0.5
0.5
0.5
0.5
0.5
0.5
0.5
0.5
0.5
0.5
0.5
0.5
0.5
0.5
0.5
0.5
0.5
0.5
0.5
0.5
0.5
0.5
0.5
0.5
0.5
0.5
0.5
0.5
0.5
0.5
0.5
0.5
0.5
0.5
0.5
0.5
0.5
0.5
0.5
0.5
0.5
0.5
0.5
0.5
0.5
0.5
0.5
0.5
0.5
0.5
0.5
0.5
0.5
0.5
0.5
0.5
0.5
0.5
0.5
0.5
0.5
0.5
0.5
0.5
0.5
0.5
0.5
0.5
0.5
0.5
0.5
0.5
0.5
0.5
0.5
0.5
0.5
0.5
0.5
0.5
0.5
0.5
0.5
0.5
0.5
0.5
0.5
0.5
0.5
0.5
0.5
0.5
0.5
0.5
0.5
0.5
0.5
0.5
0.5
0.5
0.5
0.5
0.5
0.5
0.5
0.5
0.5
0.5
0.5
0.5
0.5
0.5
0.5
0.5
0.5
0.5
0.5
0.5
0.5
0.5
0.5
0.5
0.5
0.5
0.5
0.5
0.5
0.5
0.5
0.5
0.5
0.5
0.5
0.5
0.5
0.5
0.5
0.5
0.5
0.5
0.5
0.5
0.5
0.5
0.5
0.5
0.5
0.5
0.5
0.5
0.5
0.5
0.5
0.5
0.5
0.5
0.5
0.5
0.5
0.5
0.5
0.5
0.5
0.5
0.5
0.5
0.5
0.5
0.5
0.5
0.5
0.5
0.5
0.5
0.5
0.5
0.5
0.5
0.5
0.5
0.5
0.5
0.5
0.5
0.5
0.5
0.5
0.5
0.5
0.5
0.5
0.5
0.5
0.5
0.5
0.5
0.5
0.5
0.5
0.5
0.5
0.5
0.5
0.5
0.5
0.5
0.5
0.5
0.5
0.5
0.5
0.5
0.5
0.5
0.5
0.5
0.5
0.5
0.5
0.5
0.5
0.5
0.5
0.5
0.5
0.5
0.5
0.5
0.5
0.5
0.5
0.5
0.5
0.5
0.5
0.5
0.5
0.5
0.5
0.5
0.5
0.5
0.5
0.5
0.5
0.5
0.5
0.5
0.5
0.5
0.5
0.5
0.5
0.5
0.5
0.5
0.5
0.5
0.5
0.5
0.5
0.5
0.5
0.5
0.5
0.5
0.5
0.5
0.5
0.5
0.5
0.5
0.5
0.5
0.5
0.5
0.5
0.5
0.5
0.5
0.5
0.5
0.5
0.5
0.5
0.5
0.5
0.5
0.5
0.5
0.5
0.5
0.5
0.5
0.5
0.5
0.5
0.5
0.5
0.5
0.5
0.5
0.5
0.5
0.5
0.5
0.5
0.5
0.5
0.5
0.5
0.5
0.5
0.5
0.5
0.5
0.5
0.5
0.5
0.5
0.5
0.5
0.5
0.5
0.5
0.5
0.5
0.5
0.5
0.5
0.5
0.5
0.5
0.5
0.5
0.5
0.5
0.5
0.5
0.5
0.5
0.5
0.5
0.5
0.5
0.5
0.5
0.5
0.5
0.5
0.5
0.5
0.5
0.5
0.5
0.5
0.5
0.5
0.5
0.5
0.5
0.5
0.5
0.5
0.5
0.5
0.5
0.5
0.5
0.5
0.5
0.5
0.5
0.5
0.5
0.5
0.5
0.5
0.5
0.5
0.5
0.5
0.5
0.5
0.5
0.5
0.5
0.5
0.5
0.5
0.5
0.5
0.5
0.5
0.5
0.5
0.5
0.5
0.5
0.5
0.5
0.5
0.5
0.5
0.5
0.5
0.5
0.5
0.5
0.5
0.5
0.5
0.5
0.5
0.5
0.5
0.5
0.5
0.5
0.5
0.5
0.5
0.5
0.5
0.5
0.5
0.5
0.5
0.5
0.5
0.5
0.5
0.5
0.5
0.5
0.5
0.5
0.5
0.5
0.5
0.5
0.5
0.5
0.5
0.5
0.5
0.5
0.5
0.5
0.5
0.5
0.5
0.5
0.5
0.5
0.5
0.5
0.5
0.5
0.5
0.5
0.5
0.5
0.5
0.5
0.5
0.5
0.5
0.5
0.5
0.5
0.5
0.5
0.5
0.5
0.5
0.5
0.5
0.5
0.5
0.5
0.5
0.5
0.5
0.5
0.5
0.5
0.5
0.5
0.5
0.5
0.5
0.5
0.5
