# vtk DataFile Version 2.0
Title Data
ASCII
DATASET UNSTRUCTURED_GRID
POINTS 512 float
0.088899 0.066928 0.016165
0.054874 0.071704 0.068123
0.081387 0.018434 0.035235
0.122977 0.028829 0.023543
0.087902 0.076528 0.059546
0.041257 0.063544 0.109240
0.047582 0.032860 0.132026
0.096030 0.013159 0.089284
0.077085 0.028729 0.012980
0.011667 0.030447 0.096194
0.074816 0.000769 0.079490
0.000223 0.074631 0.072460
0.068071 0.034884 0.162585
0.118445 0.034463 0.170103
0.058698 0.079656 0.168522
0.098268 0.075316 0.158146
0.099965 0.068234 0.199963
0.074084 0.053155 0.200939
0.070814 0.023269 0.234152
0.081079 0.095060 0.199657
0.001549 0.082784 0.280937
0.094764 0.062973 0.263526
0.003496 0.025804 0.268155
0.088313 0.008007 0.268058
0.090512 0.093212 0.356616
0.099705 0.076659 0.358676
0.058073 0.021315 0.329192
0.003712 0.036997 0.333699
0.067303 0.073590 0.473104
0.028421 0.088213 0.473831
0.065042 0.034998 0.451903
0.025404 0.035153 0.467473
0.099075 0.059149 0.040279
0.054312 0.038668 0.062878
0.131664 0.006669 0.080423
0.096225 0.095741 0.034028
0.034971 0.041156 0.089159
0.041151 0.024946 0.003278
0.030755 0.088427 0.131590
0.099272 0.079709 0.098637
0.075753 0.085571 0.129101
0.131987 0.084048 0.061402
0.089888 0.054305 0.090649
0.128719 0.049722 0.023647
0.075984 0.097141 0.054713
0.095217 0.094486 0.146957
0.041328 0.019570 0.063766
0.130619 0.037193 0.130699
0.057643 0.018689 0.171106
0.090633 0.019022 0.175422
0.039317 0.099527 0.174395
0.122351 0.093553 0.194249
0.099619 0.012898 0.225192
0.031784 0.007203 0.233433
0.082436 0.070100 0.237180
0.129068 0.084783 0.235344
0.044559 0.062279 0.274876
0.099326 0.048006 0.271729
0.123284 0.004276 0.285257
0.027565 0.019425 0.301168
0.052385 0.041215 0.338542
0.099824 0.057314 0.363513
0.067786 0.090938 0.392635
0.100373 0.094842 0.399761
0.101231 0.044296 0.051648
0.094324 0.042187 0.128966
0.046500 0.099099 0.012847
0.099199 0.000490 0.123942
0.098414 0.053587 0.138510
0.019229 0.058839 0.054425
0.020423 0.083470 0.096822
0.037144 0.099376 0.086641
0.041583 0.014380 0.130122
0.003874 0.045000 0.011783
0.119830 0.068324 0.098130
0.101899 0.069425 0.130351
0.113586 0.020969 0.138796
0.086075 0.013282 0.136536
0.034181 0.062448 0.164514
0.096018 0.052909 0.163978
0.099958 0.060949 0.220236
0.096314 0.055254 0.178446
0.017201 0.078336 0.208431
0.038722 0.096736 0.204166
0.125603 0.046069 0.263818
0.074898 0.051432 0.254119
0.027999 0.097055 0.261362
0.096260 0.091391 0.255469
0.054134 0.078995 0.326930
0.076256 0.061719 0.327134
0.056368 0.097406 0.296511
0.084431 0.007080 0.320203
0.077638 0.065266 0.405261
0.040062 0.067196 0.434605
0.055466 0.000076 0.429559
0.013409 0.037202 0.418151
0.099908 0.077939 0.107277
0.066296 0.081147 0.097140
0.019878 0.006639 0.134161
0.099973 0.006842 0.105084
0.097871 0.084720 0.078849
0.099604 0.090762 0.126057
0.090445 0.004765 0.099845
0.042640 0.000328 0.050271
0.109501 0.099714 0.099984
0.003319 0.098001 0.097782
0.075442 0.061011 0.052722
0.091490 0.036826 0.059680
0.061803 0.097237 0.132209
0.085042 0.004239 0.161235
0.133973 0.058797 0.135557
0.131368 0.076513 0.138433
0.058976 0.028412 0.203208
0.026886 0.026715 0.204445
0.088751 0.078755 0.169264
0.111868 0.075282 0.199970
0.100197 0.028610 0.251536
0.030539 0.041353 0.239570
0.099583 0.085576 0.238570
0.047146 0.080130 0.258732
0.087904 0.031009 0.299476
0.099979 0.045352 0.299962
0.044929 0.081664 0.298146
0.099631 0.070780 0.314873
0.055398 0.038356 0.405146
0.099518 0.056292 0.395728
0.043926 0.000061 0.355529
0.099869 0.017936 0.362371
0.054178 0.044303 0.040812
0.168236 0.037825 0.106335
0.091469 0.081982 0.002879
0.180941 0.088611 0.140148
0.100015 0.029822 0.100026
0.176880 0.025517 0.136450
0.130869 0.089013 0.088834
0.144881 0.075080 0.098139
0.002639 0.050175 0.099041
0.133761 0.040224 0.100335
0.099108 0.084721 0.047295
0.165357 0.078865 0.029183
0.098586 0.028428 0.144399
0.141709 0.047659 0.149987
0.012238 0.092217 0.161951
0.136359 0.093896 0.146062
0.020821 0.054055 0.205500
0.160400 0.063992 0.205704
0.099918 0.017476 0.199955
0.147611 0.024605 0.204164
0.087453 0.086790 0.272998
0.135826 0.078193 0.272850
0.048044 0.036159 0.268954
0.132752 0.025428 0.276977
0.088626 0.090526 0.334440
0.138310 0.092280 0.340754
0.102301 0.044157 0.333688
0.136320 0.027549 0.362241
0.087764 0.003120 0.465609
0.127519 0.009282 0.475376
0.103095 0.058772 0.470593
0.120468 0.045962 0.442955
0.116866 0.087308 0.160242
0.158073 0.085943 0.119459
0.133610 0.042187 0.068559
0.137855 0.024846 0.072427
0.048791 0.087661 0.085237
0.126681 0.089034 0.104094
0.023563 0.047818 0.138078
0.172876 0.044979 0.128761
0.127030 0.096899 0.019716
0.141166 0.095333 0.124402
0.045264 0.070203 0.098044
0.055506 0.051677 0.092800
0.000788 0.004990 0.038173
0.098915 0.094049 0.073917
0.037985 0.079183 0.047669
0.086435 0.068860 0.099315
0.038814 0.042124 0.173243
0.009317 0.026701 0.171896
0.122428 0.002405 0.166754
0.139700 0.008452 0.181138
0.054285 0.050135 0.227906
0.099991 0.031240 0.199990
0.096591 0.097559 0.232389
0.055922 0.080145 0.231214
0.100010 0.075478 0.293573
0.139039 0.053157 0.289443
0.059971 0.018161 0.273371
0.099970 0.012981 0.299975
0.025338 0.040147 0.371514
0.060872 0.065577 0.367831
0.029828 0.005615 0.390519
0.026847 0.074526 0.391441
0.100074 0.015441 0.050248
0.138872 0.021126 0.113684
0.136442 0.063348 0.060480
0.162871 0.061892 0.121974
0.054596 0.023069 0.106246
0.155005 0.014205 0.097862
0.127504 0.052307 0.098559
0.172803 0.057725 0.056765
0.099997 0.041983 0.099978
0.138678 0.042806 0.049271
0.022462 0.067852 0.131836
0.131114 0.082695 0.040543
0.067565 0.043614 0.137588
0.137500 0.013941 0.136643
0.056812 0.081472 0.135423
0.002387 0.075977 0.022291
0.054918 0.061548 0.182841
0.138682 0.071334 0.183617
0.099969 0.093009 0.199187
0.145138 0.098381 0.203139
0.009518 0.064275 0.242571
0.054756 0.078639 0.204446
0.127387 0.006501 0.235671
0.099464 0.002474 0.199724
0.026726 0.072604 0.343857
0.130412 0.064002 0.327762
0.012865 0.098755 0.322677
0.118269 0.020693 0.328223
0.087771 0.073605 0.432562
0.120227 0.088510 0.432681
0.007928 0.096403 0.430621
0.140721 0.016676 0.411930
0.136183 0.011699 0.011778
0.162134 0.014339 0.048593
0.048278 0.053878 0.017070
0.159604 0.067720 0.078152
0.056096 0.099449 0.097671
0.166504 0.099662 0.101126
0.070263 0.036236 0.095970
0.174299 0.074595 0.135672
0.099979 0.048901 0.100005
0.131481 0.099663 0.060046
0.100005 0.094648 0.100009
0.137182 0.069421 0.014310
0.012984 0.024760 0.049665
0.099766 0.030018 0.080463
0.065475 0.060167 0.135869
0.053998 0.087997 0.031695
0.130885 0.042901 0.178277
0.133403 0.051605 0.200003
0.060270 0.095089 0.168835
0.010318 0.077261 0.172950
0.099999 0.043911 0.199989
0.099482 0.039681 0.230541
0.095725 0.084166 0.199853
0.061437 0.001739 0.234819
0.029973 0.049393 0.303141
0.071192 0.053174 0.298802
0.099968 0.090001 0.299997
0.122373 0.083810 0.301285
0.096526 0.022966 0.427352
0.123151 0.047955 0.399973
0.092972 0.021144 0.399142
0.074701 0.027487 0.367277
0.199996 0.038381 0.075670
0.276445 0.089298 0.094851
0.229128 0.032933 0.064972
0.268310 0.031958 0.095921
0.200128 0.065302 0.083689
0.266294 0.059128 0.060677
0.218274 0.000945 0.007634
0.271475 0.007906 0.078368
0.199966 0.068893 0.099981
0.267577 0.085378 0.111277
0.199991 0.008047 0.099963
0.274563 0.022784 0.115823
0.211516 0.067311 0.137214
0.277978 0.073262 0.138173
0.204758 0.020548 0.147061
0.275506 0.016504 0.135971
0.197368 0.044484 0.168062
0.254598 0.063191 0.150518
0.180666 0.010321 0.180231
0.250578 0.003178 0.150360
0.168697 0.069899 0.245688
0.232851 0.063020 0.185329
0.142666 0.004364 0.248285
0.229249 0.014786 0.187432
0.186806 0.092683 0.334492
0.267334 0.092758 0.334971
0.176486 0.026800 0.344633
0.254199 0.037463 0.344100
0.161577 0.089482 0.451694
0.256261 0.079375 0.422109
0.160958 0.041562 0.447551
0.086515 0.035775 0.499712
0.178504 0.031340 0.063469
0.232030 0.017062 0.093179
0.158577 0.095399 0.052809
0.233592 0.073522 0.091008
0.174499 0.015358 0.084975
0.239880 0.020385 0.039420
0.172556 0.088875 0.066002
0.227570 0.080673 0.024529
0.168633 0.044108 0.008343
0.220855 0.051868 0.054320
0.170632 0.098462 0.099441
0.216140 0.097095 0.059664
0.166811 0.028447 0.033096
0.234106 0.008915 0.111439
0.184831 0.002502 0.133933
0.217131 0.073851 0.048257
0.158452 0.009862 0.149633
0.224214 0.032714 0.132883
0.144292 0.073612 0.163950
0.221223 0.083603 0.132588
0.164362 0.038587 0.211480
0.197928 0.029988 0.200022
0.156825 0.083967 0.210345
0.184712 0.066648 0.179589
0.182496 0.068992 0.281974
0.200021 0.045998 0.299963
0.161290 0.006607 0.288857
0.190463 0.019911 0.299980
0.139033 0.061244 0.365373
0.210177 0.055160 0.353302
0.129426 0.090402 0.381818
0.202500 0.025324 0.384161
0.200010 0.052417 0.100012
0.266195 0.043301 0.040128
0.199997 0.087177 0.099955
0.262268 0.000445 0.005361
0.162936 0.056825 0.094149
0.258159 0.050281 0.117176
0.197678 0.009935 0.029890
0.261206 0.085007 0.056479
0.184378 0.064604 0.042437
0.250632 0.068590 0.010136
0.200073 0.096679 0.099738
0.261412 0.097128 0.040371
0.189850 0.063899 0.151192
0.239920 0.068843 0.069988
0.203236 0.097747 0.157398
0.235048 0.099765 0.130537
0.165436 0.049677 0.168155
0.245219 0.042335 0.145957
0.180203 0.090458 0.176934
0.228827 0.093911 0.169064
0.140197 0.052728 0.242764
0.188777 0.058773 0.234968
0.167840 0.096343 0.221920
0.199987 0.095112 0.199982
0.169670 0.067347 0.351899
0.234347 0.072007 0.318072
0.147484 0.016412 0.317887
0.219606 0.018985 0.325990
0.153657 0.073508 0.410536
0.197335 0.075371 0.392852
0.186357 0.013050 0.417551
0.243660 0.013825 0.395016
0.199972 0.024754 0.099963
0.249229 0.028025 0.082204
0.198794 0.075272 0.100016
0.240988 0.088518 0.093107
0.201284 0.032118 0.038967
0.240753 0.036985 0.016788
0.169247 0.085559 0.087852
0.241391 0.076810 0.123742
0.200024 0.038365 0.100008
0.209003 0.048080 0.008992
0.200008 0.093531 0.112004
0.201249 0.094208 0.060753
0.207899 0.046266 0.126765
0.237344 0.052627 0.101388
0.185247 0.086461 0.023254
0.243332 0.099540 0.066295
0.163376 0.028975 0.169596
0.223324 0.035960 0.169614
0.158210 0.088587 0.169006
0.223281 0.076385 0.166014
0.132416 0.031313 0.226083
0.199985 0.015556 0.200003
0.131758 0.068320 0.231340
0.200002 0.083312 0.199999
0.151900 0.046245 0.316586
0.193793 0.055725 0.316486
0.163560 0.082634 0.308790
0.199980 0.089188 0.299439
0.167266 0.043560 0.389197
0.242324 0.060039 0.383641
0.167244 0.099097 0.375626
0.224257 0.093479 0.358421
0.360054 0.085806 0.067932
0.468841 0.070610 0.068220
0.345262 0.027448 0.079695
0.453914 0.029471 0.079254
0.355940 0.076459 0.093586
0.472491 0.088551 0.032192
0.336429 0.034565 0.004808
0.462971 0.035909 0.034589
0.337329 0.093178 0.100292
0.475002 0.000851 0.080304
0.338172 0.044689 0.100963
0.461791 0.057251 0.102102
0.345560 0.093918 0.141932
0.471737 0.005361 0.124632
0.357740 0.028070 0.135212
0.438202 0.055690 0.126144
0.336164 0.089707 0.192223
0.449769 0.083798 0.159549
0.349669 0.026659 0.176804
0.499875 0.041248 0.091474
0.341703 0.093408 0.261110
0.464532 0.071991 0.212006
0.345083 0.041407 0.254108
0.460372 0.036978 0.157605
0.227380 0.053951 0.231308
0.272617 0.080772 0.230117
0.216644 0.017409 0.234428
0.291930 0.023244 0.221981
0.230846 0.069260 0.276517
0.272198 0.076708 0.288695
0.236607 0.015303 0.291564
0.277873 0.028377 0.292123
0.284765 0.064610 0.022514
0.353777 0.045754 0.053327
0.299052 0.096833 0.086291
0.399759 0.001311 0.091135
0.272166 0.058454 0.082906
0.362283 0.064022 0.107871
0.296960 0.009675 0.020425
0.398796 0.086909 0.097331
0.299136 0.064408 0.084531
0.375659 0.037299 0.015767
0.284030 0.025604 0.053294
0.388401 0.096338 0.004894
0.294255 0.054905 0.130018
0.387094 0.061369 0.049422
0.300011 0.019252 0.099812
0.392383 0.086076 0.045620
0.292114 0.063190 0.172002
0.370472 0.062006 0.136856
0.295068 0.029210 0.150942
0.383176 0.097377 0.131008
0.300013 0.059854 0.199989
0.358837 0.053474 0.209520
0.299967 0.023507 0.199652
0.397820 0.024896 0.206368
0.178704 0.030982 0.235628
0.263959 0.024090 0.181475
0.187472 0.095322 0.235154
0.275734 0.093040 0.149429
0.168288 0.025364 0.256894
0.258469 0.015466 0.224526
0.157327 0.088539 0.265186
0.229358 0.077790 0.229262
0.321357 0.074567 0.052329
0.399904 0.067810 0.095292
0.323866 0.001435 0.043704
0.431703 0.099691 0.055909
0.327465 0.064151 0.077758
0.429035 0.070197 0.024487
0.319465 0.008301 0.067306
0.414986 0.028602 0.025852
0.348564 0.073252 0.024684
0.432431 0.075679 0.080466
0.327621 0.000383 0.099150
0.438229 0.005077 0.003096
0.326380 0.067125 0.129703
0.427742 0.092623 0.114505
0.321325 0.017844 0.126246
0.421755 0.017730 0.144766
0.356672 0.070668 0.168289
0.407363 0.075944 0.150258
0.313128 0.014022 0.166487
0.419624 0.013424 0.187811
0.319442 0.072763 0.231679
0.398139 0.074891 0.196156
0.331448 0.017642 0.220456
0.467278 0.011782 0.193355
0.199998 0.050711 0.199997
0.269727 0.043715 0.172028
0.236419 0.093844 0.212313
0.271819 0.096376 0.184128
0.170136 0.047478 0.275268
0.289348 0.051883 0.253592
0.200663 0.004087 0.269416
0.292620 0.002084 0.256692
0.314874 0.040720 0.052531
0.422726 0.047858 0.058262
0.293813 0.082767 0.046803
0.355350 0.006884 0.037005
0.300007 0.034897 0.099925
0.399610 0.051080 0.097032
0.312368 0.074936 0.100006
0.363268 0.011274 0.098500
0.307469 0.045788 0.018533
0.423743 0.026202 0.097595
0.299947 0.082924 0.099742
0.388611 0.019317 0.059182
0.300011 0.049801 0.099989
0.399230 0.036708 0.126518
0.305401 0.091029 0.126160
0.379902 0.037123 0.089489
0.328039 0.049908 0.147207
0.390673 0.043481 0.168548
0.311777 0.084529 0.163185
0.376687 0.001078 0.171733
0.322640 0.051876 0.190925
0.390003 0.057989 0.240557
0.299520 0.091264 0.200020
0.367851 0.095270 0.220828
0.236952 0.041271 0.206037
0.266290 0.054908 0.214288
0.200012 0.069681 0.200017
0.258134 0.079105 0.187166
0.211356 0.039975 0.262652
0.252080 0.040712 0.257168
0.202552 0.082295 0.252751
0.245599 0.096750 0.258505

CELL_TYPES 512
1
1
1
1
1
1
1
1
1
1
1
1
1
1
1
1
1
1
1
1
1
1
1
1
1
1
1
1
1
1
1
1
1
1
1
1
1
1
1
1
1
1
1
1
1
1
1
1
1
1
1
1
1
1
1
1
1
1
1
1
1
1
1
1
1
1
1
1
1
1
1
1
1
1
1
1
1
1
1
1
1
1
1
1
1
1
1
1
1
1
1
1
1
1
1
1
1
1
1
1
1
1
1
1
1
1
1
1
1
1
1
1
1
1
1
1
1
1
1
1
1
1
1
1
1
1
1
1
1
1
1
1
1
1
1
1
1
1
1
1
1
1
1
1
1
1
1
1
1
1
1
1
1
1
1
1
1
1
1
1
1
1
1
1
1
1
1
1
1
1
1
1
1
1
1
1
1
1
1
1
1
1
1
1
1
1
1
1
1
1
1
1
1
1
1
1
1
1
1
1
1
1
1
1
1
1
1
1
1
1
1
1
1
1
1
1
1
1
1
1
1
1
1
1
1
1
1
1
1
1
1
1
1
1
1
1
1
1
1
1
1
1
1
1
1
1
1
1
1
1
1
1
1
1
1
1
1
1
1
1
1
1
1
1
1
1
1
1
1
1
1
1
1
1
1
1
1
1
1
1
1
1
1
1
1
1
1
1
1
1
1
1
1
1
1
1
1
1
1
1
1
1
1
1
1
1
1
1
1
1
1
1
1
1
1
1
1
1
1
1
1
1
1
1
1
1
1
1
1
1
1
1
1
1
1
1
1
1
1
1
1
1
1
1
1
1
1
1
1
1
1
1
1
1
1
1
1
1
1
1
1
1
1
1
1
1
1
1
1
1
1
1
1
1
1
1
1
1
1
1
1
1
1
1
1
1
1
1
1
1
1
1
1
1
1
1
1
1
1
1
1
1
1
1
1
1
1
1
1
1
1
1
1
1
1
1
1
1
1
1
1
1
1
1
1
1
1
1
1
1
1
1
1
1
1
1
1
1
1
1
1
1
1
1
1
1
1
1
1
1
1
1
1
1
1
1
1
1
1
1
1
1
1
1
1
1
1
1
1
1
1
1
1
1
1
1
1
1
1
1
1
1
1
1
1
1
1
1
1
1
1
1
1
1
1
1
1
1
1
1
1
1
1
1
1
1
1
1
1
1
1
1

POINT_DATA 512
SCALARS radius float
LOOKUP_TABLE default
0.5
0.5
0.5
0.5
0.5
0.5
0.5
0.5
0.5
0.5
0.5
0.5
0.5
0.5
0.5
0.5
0.5
0.5
0.5
0.5
0.5
0.5
0.5
0.5
0.5
0.5
0.5
0.5
0.5
0.5
0.5
0.5
0.5
0.5
0.5
0.5
0.5
0.5
0.5
0.5
0.5
0.5
0.5
0.5
0.5
0.5
0.5
0.5
0.5
0.5
0.5
0.5
0.5
0.5
0.5
0.5
0.5
0.5
0.5
0.5
0.5
0.5
0.5
0.5
0.5
0.5
0.5
0.5
0.5
0.5
0.5
0.5
0.5
0.5
0.5
0.5
0.5
0.5
0.5
0.5
0.5
0.5
0.5
0.5
0.5
0.5
0.5
0.5
0.5
0.5
0.5
0.5
0.5
0.5
0.5
0.5
0.5
0.5
0.5
0.5
0.5
0.5
0.5
0.5
0.5
0.5
0.5
0.5
0.5
0.5
0.5
0.5
0.5
0.5
0.5
0.5
0.5
0.5
0.5
0.5
0.5
0.5
0.5
0.5
0.5
0.5
0.5
0.5
0.5
0.5
0.5
0.5
0.5
0.5
0.5
0.5
0.5
0.5
0.5
0.5
0.5
0.5
0.5
0.5
0.5
0.5
0.5
0.5
0.5
0.5
0.5
0.5
0.5
0.5
0.5
0.5
0.5
0.5
0.5
0.5
0.5
0.5
0.5
0.5
0.5
0.5
0.5
0.5
0.5
0.5
0.5
0.5
0.5
0.5
0.5
0.5
0.5
0.5
0.5
0.5
0.5
0.5
0.5
0.5
0.5
0.5
0.5
0.5
0.5
0.5
0.5
0.5
0.5
0.5
0.5
0.5
0.5
0.5
0.5
0.5
0.5
0.5
0.5
0.5
0.5
0.5
0.5
0.5
0.5
0.5
0.5
0.5
0.5
0.5
0.5
0.5
0.5
0.5
0.5
0.5
0.5
0.5
0.5
0.5
0.5
0.5
0.5
0.5
0.5
0.5
0.5
0.5
0.5
0.5
0.5
0.5
0.5
0.5
0.5
0.5
0.5
0.5
0.5
0.5
0.5
0.5
0.5
0.5
0.5
0.5
0.5
0.5
0.5
0.5
0.5
0.5
0.5
0.5
0.5
0.5
0.5
0.5
0.5
0.5
0.5
0.5
0.5
0.5
0.5
0.5
0.5
0.5
0.5
0.5
0.5
0.5
0.5
0.5
0.5
0.5
0.5
0.5
0.5
0.5
0.5
0.5
0.5
0.5
0.5
0.5
0.5
0.5
0.5
0.5
0.5
0.5
0.5
0.5
0.5
0.5
0.5
0.5
0.5
0.5
0.5
0.5
0.5
0.5
0.5
0.5
0.5
0.5
0.5
0.5
0.5
0.5
0.5
0.5
0.5
0.5
0.5
0.5
0.5
0.5
0.5
0.5
0.5
0.5
0.5
0.5
0.5
0.5
0.5
0.5
0.5
0.5
0.5
0.5
0.5
0.5
0.5
0.5
0.5
0.5
0.5
0.5
0.5
0.5
0.5
0.5
0.5
0.5
0.5
0.5
0.5
0.5
0.5
0.5
0.5
0.5
0.5
0.5
0.5
0.5
0.5
0.5
0.5
0.5
0.5
0.5
0.5
0.5
0.5
0.5
0.5
0.5
0.5
0.5
0.5
0.5
0.5
0.5
0.5
0.5
0.5
0.5
0.5
0.5
0.5
0.5
0.5
0.5
0.5
0.5
0.5
0.5
0.5
0.5
0.5
0.5
0.5
0.5
0.5
0.5
0.5
0.5
0.5
0.5
0.5
0.5
0.5
0.5
0.5
0.5
0.5
0.5
0.5
0.5
0.5
0.5
0.5
0.5
0.5
0.5
0.5
0.5
0.5
0.5
0.5
0.5
0.5
0.5
0.5
0.5
0.5
0.5
0.5
0.5
0.5
0.5
0.5
0.5
0.5
0.5
0.5
0.5
0.5
0.5
0.5
0.5
0.5
0.5
0.5
0.5
0.5
0.5
0.5
0.5
0.5
0.5
0.5
0.5
0.5
0.5
0.5
0.5
0.5
0.5
0.5
0.5
0.5
0.5
0.5
0.5
0.5
0.5
0.5
0.5
0.5
0.5
0.5
0.5
0.5
0.5
0.5
0.5
0.5
0.5
0.5
0.5
0.5
0.5
0.5
0.5
0.5
0.5
0.5
0.5
0.5
0.5
0.5
0.5
0.5
0.5
0.5
0.5
0.5
0.5
0.5
0.5
0.5
0.5
