# vtk DataFile Version 2.0
Title Data
ASCII
DATASET UNSTRUCTURED_GRID
POINTS 512 float
0.047825 0.074461 0.095866
0.053823 0.066469 0.005451
0.014061 0.009521 0.012381
0.129000 0.017368 0.095271
0.101624 0.069272 0.047285
0.097819 0.056277 0.053947
0.099997 0.007302 0.118512
0.100012 0.016290 0.099992
0.021107 0.028302 0.097321
0.090251 0.022984 0.060440
0.114986 0.090868 0.031526
0.092522 0.075591 0.027112
0.048255 0.037529 0.145910
0.107922 0.030674 0.156786
0.041382 0.081322 0.161402
0.077733 0.071357 0.151700
0.100023 0.056033 0.200184
0.099998 0.046043 0.200069
0.100015 0.024091 0.200029
0.100002 0.096158 0.200749
0.065172 0.075694 0.281278
0.031952 0.061987 0.258376
0.066265 0.025463 0.269915
0.042485 0.100000 0.271901
0.100916 0.084416 0.357157
0.045901 0.072018 0.363184
0.102351 0.025831 0.346814
0.060561 0.027525 0.340907
0.098925 0.071038 0.471582
0.055628 0.078538 0.480097
0.094886 0.023531 0.456536
0.055875 0.031717 0.473966
0.064268 0.055370 0.096572
0.100006 0.028342 0.100026
0.112278 0.008151 0.007602
0.057248 0.092498 0.098759
0.099980 0.039087 0.054515
0.099171 0.026633 0.077488
0.099944 0.087060 0.113667
0.112989 0.069742 0.096882
0.030994 0.084199 0.113622
0.130843 0.080088 0.099392
0.100078 0.041883 0.100020
0.131854 0.044351 0.096228
0.053345 0.099281 0.025639
0.068399 0.090239 0.146398
0.009779 0.016128 0.051820
0.123160 0.030090 0.129003
0.027754 0.010848 0.173326
0.063931 0.011224 0.176919
0.008832 0.001605 0.150915
0.113889 0.091576 0.169108
0.066962 0.010628 0.230917
0.096692 0.009506 0.229322
0.045919 0.068111 0.217690
0.122303 0.076693 0.228359
0.095758 0.057410 0.274378
0.054279 0.047765 0.276449
0.110227 0.098558 0.273685
0.069084 0.001654 0.298116
0.093197 0.049350 0.358128
0.003010 0.054051 0.371242
0.101698 0.086867 0.397201
0.019207 0.086488 0.400384
0.091316 0.038358 0.100044
0.054019 0.041446 0.104519
0.005091 0.097242 0.096530
0.048694 0.097079 0.105105
0.077384 0.043085 0.129964
0.099954 0.052803 0.099977
0.098675 0.083251 0.062358
0.099973 0.094139 0.099951
0.012014 0.015499 0.120278
0.083278 0.046546 0.076847
0.011362 0.062997 0.067767
0.067996 0.059969 0.131566
0.040182 0.019745 0.134497
0.071929 0.013077 0.137988
0.102145 0.057960 0.148943
0.059608 0.051220 0.163585
0.055780 0.051824 0.204849
0.071024 0.047650 0.177133
0.097200 0.080562 0.201091
0.096025 0.091902 0.186402
0.110480 0.045321 0.246909
0.010149 0.044480 0.242182
0.082321 0.095402 0.255569
0.032503 0.085274 0.252624
0.099991 0.066644 0.319083
0.021374 0.058697 0.324290
0.099977 0.093538 0.312288
0.020824 0.010911 0.318350
0.099924 0.066961 0.406403
0.062559 0.066193 0.436524
0.097000 0.099130 0.427964
0.057779 0.021310 0.426508
0.077251 0.076782 0.007263
0.098800 0.083257 0.088993
0.100007 0.097490 0.128712
0.074402 0.008670 0.037405
0.041947 0.078195 0.046096
0.069856 0.092032 0.100047
0.053999 0.011282 0.071606
0.099924 0.098749 0.099897
0.106723 0.001239 0.057650
0.063989 0.094688 0.060864
0.006453 0.054783 0.025240
0.054901 0.044315 0.028827
0.039696 0.092398 0.134874
0.060965 0.002707 0.148394
0.126193 0.055256 0.135624
0.130116 0.070655 0.140494
0.055457 0.030890 0.191746
0.095665 0.024408 0.179961
0.050857 0.070097 0.181915
0.110480 0.075555 0.177226
0.045186 0.025187 0.239577
0.094100 0.035280 0.235425
0.067830 0.083500 0.236943
0.094888 0.073131 0.235045
0.099994 0.031852 0.300010
0.043036 0.033888 0.301341
0.099077 0.078775 0.299640
0.053014 0.073512 0.311319
0.088239 0.037897 0.413007
0.034987 0.046845 0.403371
0.078196 0.001025 0.358602
0.031968 0.009867 0.369873
0.041523 0.036627 0.014235
0.166603 0.038242 0.030745
0.049264 0.081904 0.065417
0.171312 0.085179 0.130560
0.054343 0.019184 0.101816
0.169518 0.023197 0.124268
0.135578 0.087850 0.074034
0.146608 0.074658 0.076209
0.081462 0.035806 0.035294
0.144931 0.038647 0.069414
0.088528 0.088977 0.097526
0.161194 0.086718 0.097715
0.087836 0.031800 0.140844
0.141283 0.042081 0.138449
0.099335 0.089814 0.141868
0.139633 0.092590 0.135940
0.098296 0.055910 0.185406
0.147596 0.061950 0.191737
0.101790 0.010662 0.200027
0.147060 0.017042 0.184163
0.104855 0.082947 0.261032
0.133472 0.072914 0.263191
0.096845 0.027236 0.259486
0.133235 0.023244 0.264958
0.017768 0.088237 0.343585
0.136099 0.087035 0.345353
0.030496 0.040616 0.344793
0.132522 0.025710 0.355908
0.014508 0.002783 0.478049
0.109401 0.097340 0.475346
0.014247 0.051316 0.480142
0.105529 0.049114 0.451298
0.099841 0.087241 0.133139
0.140746 0.078959 0.100140
0.124858 0.040032 0.019574
0.131542 0.026321 0.055167
0.099539 0.090155 0.055604
0.139784 0.084905 0.051831
0.099990 0.046491 0.123878
0.159066 0.044058 0.108386
0.120173 0.095633 0.096464
0.143700 0.094262 0.105603
0.098876 0.067129 0.090444
0.045268 0.056655 0.054497
0.093515 0.098753 0.099421
0.088555 0.095462 0.048404
0.099929 0.064188 0.099881
0.070417 0.062257 0.044468
0.008239 0.043626 0.163656
0.097963 0.016624 0.161768
0.107167 0.096753 0.153630
0.133803 0.100000 0.168270
0.010085 0.039783 0.207226
0.023908 0.019274 0.200941
0.050215 0.097116 0.214256
0.018759 0.078801 0.208600
0.004278 0.059654 0.285620
0.135883 0.048633 0.281646
0.009909 0.021307 0.275763
0.104868 0.015030 0.296650
0.059497 0.037801 0.381688
0.100252 0.062818 0.384197
0.063431 0.097536 0.397825
0.060867 0.077411 0.393714
0.061777 0.012428 0.099778
0.143313 0.016475 0.025375
0.116016 0.061379 0.007536
0.148669 0.061112 0.103478
0.042031 0.023413 0.054118
0.149127 0.014529 0.069009
0.126627 0.051741 0.055363
0.163762 0.059429 0.030660
0.102924 0.036801 0.052127
0.144136 0.035624 0.099583
0.099970 0.070965 0.115835
0.141561 0.078289 0.031496
0.026524 0.042010 0.136144
0.135934 0.013590 0.136351
0.050090 0.072984 0.133717
0.065240 0.072193 0.080138
0.018339 0.060761 0.174891
0.139619 0.069597 0.176251
0.064762 0.093575 0.198089
0.142380 0.096022 0.184847
0.075589 0.062037 0.242711
0.099989 0.068771 0.200482
0.124061 0.099096 0.234870
0.099966 0.099698 0.200023
0.071087 0.069710 0.346946
0.125746 0.061148 0.330098
0.061120 0.095653 0.327413
0.111379 0.011154 0.326853
0.015479 0.074523 0.440763
0.114112 0.080711 0.432186
0.043697 0.099708 0.441942
0.134811 0.017942 0.422906
0.138135 0.099416 0.094863
0.148393 0.012040 0.100548
0.041765 0.053897 0.094225
0.144404 0.060399 0.048585
0.021663 0.097023 0.068876
0.167989 0.099019 0.051275
0.011332 0.041298 0.092474
0.171028 0.067081 0.116762
0.051124 0.035594 0.068917
0.133659 0.003331 0.048037
0.028781 0.086606 0.027051
0.141239 0.056748 0.089748
0.096348 0.004851 0.100007
0.094413 0.027622 0.015220
0.022306 0.065416 0.132969
0.017236 0.075213 0.098643
0.124987 0.037761 0.168586
0.140673 0.043292 0.179298
0.047919 0.090299 0.178186
0.091217 0.078557 0.162121
0.100015 0.035696 0.200081
0.058086 0.044027 0.229025
0.099965 0.089936 0.201389
0.014116 0.000324 0.234687
0.072745 0.042581 0.317587
0.100003 0.046999 0.299984
0.019040 0.086917 0.295374
0.129558 0.082743 0.298452
0.011589 0.032825 0.434833
0.118033 0.040097 0.400018
0.099998 0.014393 0.395481
0.099999 0.020843 0.388266
0.200013 0.045753 0.100042
0.291245 0.076795 0.053617
0.215260 0.021982 0.099970
0.281110 0.023092 0.057603
0.211704 0.057403 0.100010
0.270176 0.060438 0.016282
0.219395 0.094740 0.075716
0.278577 0.006426 0.023696
0.193294 0.063622 0.069121
0.271878 0.085061 0.099553
0.199968 0.004435 0.099896
0.269494 0.020159 0.102086
0.206503 0.064882 0.136949
0.269394 0.071862 0.125959
0.199393 0.016337 0.137295
0.271764 0.020100 0.128737
0.187004 0.044417 0.170631
0.251351 0.060877 0.136642
0.179675 0.006858 0.165634
0.253000 0.096618 0.137684
0.166718 0.065155 0.232809
0.225897 0.057919 0.175343
0.139985 0.099078 0.230872
0.223356 0.005299 0.173841
0.184749 0.087007 0.339250
0.261638 0.086144 0.351397
0.173717 0.023548 0.346484
0.245108 0.031473 0.355877
0.151719 0.084487 0.456585
0.216700 0.083789 0.439462
0.149073 0.037925 0.457306
0.099944 0.031835 0.499952
0.179492 0.020895 0.015617
0.239008 0.012566 0.050019
0.150618 0.094513 0.007381
0.226060 0.069172 0.045848
0.179857 0.015890 0.061059
0.234819 0.007652 0.099489
0.183934 0.089010 0.044372
0.231833 0.082120 0.078700
0.177277 0.040051 0.097121
0.215933 0.044758 0.003356
0.166170 0.092558 0.069606
0.218962 0.091703 0.035011
0.172829 0.015152 0.100093
0.218872 0.018984 0.003134
0.184107 0.096997 0.119276
0.220695 0.075222 0.002316
0.149082 0.001346 0.138650
0.216625 0.030279 0.134229
0.141953 0.074627 0.142410
0.214294 0.084204 0.135762
0.150318 0.033367 0.201182
0.186994 0.024075 0.178666
0.145454 0.084141 0.197460
0.180350 0.062261 0.175678
0.170881 0.063093 0.283907
0.205898 0.049086 0.297414
0.151130 0.011002 0.284695
0.186044 0.017489 0.295331
0.139854 0.048538 0.371274
0.200755 0.049742 0.361250
0.135695 0.094108 0.384538
0.200018 0.020491 0.388859
0.211069 0.053882 0.043075
0.263798 0.044112 0.087551
0.200053 0.075228 0.099979
0.267078 0.095265 0.068386
0.172714 0.049462 0.062246
0.254054 0.043428 0.101705
0.188703 0.098332 0.089330
0.262082 0.087313 0.021397
0.183264 0.063822 0.098804
0.259533 0.060911 0.073586
0.211624 0.000257 0.050023
0.255669 0.099310 0.089103
0.179823 0.062313 0.137063
0.230050 0.062887 0.099749
0.191503 0.095837 0.139339
0.234190 0.095797 0.122762
0.165018 0.048840 0.150707
0.242646 0.038465 0.132860
0.177416 0.089282 0.165057
0.225171 0.094037 0.160737
0.135737 0.046993 0.234380
0.185471 0.056093 0.212427
0.165538 0.096961 0.207163
0.200080 0.092303 0.199965
0.161948 0.065500 0.353965
0.229377 0.066537 0.327537
0.149855 0.009422 0.319180
0.214479 0.015255 0.326779
0.148294 0.071483 0.412228
0.191878 0.076369 0.399201
0.176291 0.009729 0.425564
0.228239 0.010761 0.405820
0.200867 0.030186 0.030515
0.250828 0.026934 0.037794
0.185289 0.070850 0.023622
0.252221 0.080603 0.053611
0.200022 0.030093 0.094932
0.239636 0.036040 0.084599
0.184482 0.078369 0.060761
0.243518 0.075838 0.104966
0.193167 0.034535 0.062896
0.224895 0.035892 0.062493
0.183881 0.093994 0.005818
0.200000 0.091124 0.099982
0.196293 0.043117 0.132146
0.247378 0.052103 0.039989
0.186756 0.084638 0.095723
0.242340 0.098834 0.000426
0.160476 0.027370 0.150463
0.227227 0.030275 0.154582
0.153285 0.085357 0.151975
0.221211 0.071765 0.152768
0.139524 0.027349 0.220321
0.199988 0.017803 0.200047
0.141638 0.070190 0.220127
0.187869 0.081617 0.177227
0.144334 0.043518 0.315319
0.189007 0.050641 0.317005
0.162461 0.082200 0.307926
0.200000 0.086462 0.300017
0.165625 0.042542 0.397304
0.231517 0.056640 0.395773
0.164334 0.001144 0.378682
0.216838 0.088927 0.365549
0.375092 0.081947 0.100269
0.475803 0.070954 0.091964
0.357746 0.023637 0.099079
0.465727 0.029186 0.092167
0.375546 0.070188 0.039396
0.489117 0.079757 0.052264
0.351166 0.029073 0.055465
0.483392 0.031575 0.053139
0.353087 0.087492 0.011637
0.489466 0.002688 0.011595
0.356608 0.040865 0.021645
0.489131 0.051277 0.012144
0.358214 0.089384 0.131587
0.484406 0.100000 0.113451
0.360813 0.026051 0.127898
0.456618 0.050625 0.124033
0.351182 0.086801 0.180914
0.464834 0.081729 0.152351
0.360350 0.024496 0.168491
0.506218 0.034681 0.099348
0.363193 0.085812 0.254198
0.450267 0.083521 0.282102
0.363745 0.032514 0.244140
0.476733 0.029755 0.157042
0.232779 0.052501 0.217159
0.272606 0.079839 0.212138
0.210312 0.011922 0.222523
0.298628 0.014334 0.209602
0.228589 0.069362 0.272473
0.271154 0.070447 0.282920
0.230484 0.013366 0.284351
0.274581 0.023476 0.279017
0.286920 0.054624 0.071515
0.367131 0.047396 0.085843
0.300009 0.093709 0.099801
0.398789 0.093803 0.098833
0.290176 0.048881 0.041097
0.381613 0.055648 0.100517
0.303416 0.001958 0.058510
0.407941 0.083744 0.012886
0.299972 0.061930 0.099976
0.392600 0.033050 0.050679
0.290425 0.022045 0.099058
0.409490 0.096866 0.052037
0.299986 0.051221 0.123552
0.397909 0.056146 0.083616
0.299990 0.012691 0.099972
0.402684 0.079025 0.066838
0.295192 0.062451 0.165325
0.381472 0.050153 0.134715
0.296938 0.017106 0.142601
0.396186 0.098790 0.130099
0.299978 0.055050 0.201729
0.373335 0.051730 0.199689
0.303613 0.020452 0.184620
0.397898 0.020705 0.200020
0.177098 0.030960 0.225454
0.261759 0.022472 0.167751
0.179172 0.091771 0.221888
0.279693 0.088113 0.146942
0.169961 0.018269 0.250848
0.254329 0.015591 0.214301
0.153805 0.086980 0.260631
0.230372 0.072373 0.226964
0.335545 0.066812 0.093114
0.422090 0.065616 0.100009
0.337564 0.092864 0.090344
0.441948 0.098054 0.089826
0.332925 0.059780 0.015689
0.445847 0.066104 0.058287
0.327974 0.011360 0.013756
0.436445 0.019266 0.058629
0.357252 0.071565 0.061365
0.450591 0.075401 0.013596
0.333504 0.098118 0.055233
0.451662 0.002460 0.035818
0.340720 0.065219 0.121233
0.435839 0.084210 0.111216
0.327284 0.009442 0.109197
0.437284 0.016047 0.133340
0.366288 0.066047 0.157158
0.419942 0.074190 0.147713
0.329442 0.008961 0.150691
0.435880 0.011695 0.175969
0.337653 0.066254 0.222978
0.411495 0.077764 0.192388
0.342032 0.015966 0.210228
0.414295 0.010976 0.284958
0.200032 0.045566 0.200031
0.274362 0.047713 0.157093
0.239527 0.092051 0.198300
0.272454 0.096405 0.176504
0.171015 0.048737 0.264320
0.274308 0.050847 0.240737
0.193509 0.096093 0.262235
0.281477 0.095434 0.246285
0.323286 0.034127 0.090221
0.429975 0.038720 0.079963
0.300060 0.076790 0.095947
0.369115 0.000506 0.070480
0.311849 0.034909 0.033669
0.413915 0.049495 0.034341
0.322559 0.075802 0.050223
0.375666 0.007276 0.025538
0.328128 0.044224 0.064816
0.442694 0.034742 0.007952
0.305210 0.084885 0.009741
0.402966 0.013123 0.099980
0.300047 0.042449 0.099980
0.409272 0.042256 0.120487
0.304839 0.086669 0.122617
0.398706 0.023159 0.098077
0.327009 0.045831 0.140218
0.406477 0.042404 0.166362
0.320881 0.082825 0.156430
0.390222 0.001084 0.161072
0.331281 0.049456 0.181556
0.403052 0.053776 0.231803
0.306844 0.087128 0.200005
0.381908 0.088840 0.210845
0.231403 0.035494 0.185614
0.268804 0.045684 0.196641
0.200015 0.075306 0.199962
0.251756 0.073021 0.176070
0.205253 0.039869 0.252891
0.240324 0.033108 0.250194
0.194770 0.075506 0.244053
0.235937 0.093472 0.245084

CELL_TYPES 512
1
1
1
1
1
1
1
1
1
1
1
1
1
1
1
1
1
1
1
1
1
1
1
1
1
1
1
1
1
1
1
1
1
1
1
1
1
1
1
1
1
1
1
1
1
1
1
1
1
1
1
1
1
1
1
1
1
1
1
1
1
1
1
1
1
1
1
1
1
1
1
1
1
1
1
1
1
1
1
1
1
1
1
1
1
1
1
1
1
1
1
1
1
1
1
1
1
1
1
1
1
1
1
1
1
1
1
1
1
1
1
1
1
1
1
1
1
1
1
1
1
1
1
1
1
1
1
1
1
1
1
1
1
1
1
1
1
1
1
1
1
1
1
1
1
1
1
1
1
1
1
1
1
1
1
1
1
1
1
1
1
1
1
1
1
1
1
1
1
1
1
1
1
1
1
1
1
1
1
1
1
1
1
1
1
1
1
1
1
1
1
1
1
1
1
1
1
1
1
1
1
1
1
1
1
1
1
1
1
1
1
1
1
1
1
1
1
1
1
1
1
1
1
1
1
1
1
1
1
1
1
1
1
1
1
1
1
1
1
1
1
1
1
1
1
1
1
1
1
1
1
1
1
1
1
1
1
1
1
1
1
1
1
1
1
1
1
1
1
1
1
1
1
1
1
1
1
1
1
1
1
1
1
1
1
1
1
1
1
1
1
1
1
1
1
1
1
1
1
1
1
1
1
1
1
1
1
1
1
1
1
1
1
1
1
1
1
1
1
1
1
1
1
1
1
1
1
1
1
1
1
1
1
1
1
1
1
1
1
1
1
1
1
1
1
1
1
1
1
1
1
1
1
1
1
1
1
1
1
1
1
1
1
1
1
1
1
1
1
1
1
1
1
1
1
1
1
1
1
1
1
1
1
1
1
1
1
1
1
1
1
1
1
1
1
1
1
1
1
1
1
1
1
1
1
1
1
1
1
1
1
1
1
1
1
1
1
1
1
1
1
1
1
1
1
1
1
1
1
1
1
1
1
1
1
1
1
1
1
1
1
1
1
1
1
1
1
1
1
1
1
1
1
1
1
1
1
1
1
1
1
1
1
1
1
1
1
1
1
1
1
1
1
1
1
1
1
1
1
1
1
1
1
1
1
1
1
1
1
1
1
1
1
1
1
1
1
1
1
1
1
1
1
1
1
1
1
1
1
1
1
1

POINT_DATA 512
SCALARS radius float
LOOKUP_TABLE default
0.5
0.5
0.5
0.5
0.5
0.5
0.5
0.5
0.5
0.5
0.5
0.5
0.5
0.5
0.5
0.5
0.5
0.5
0.5
0.5
0.5
0.5
0.5
0.5
0.5
0.5
0.5
0.5
0.5
0.5
0.5
0.5
0.5
0.5
0.5
0.5
0.5
0.5
0.5
0.5
0.5
0.5
0.5
0.5
0.5
0.5
0.5
0.5
0.5
0.5
0.5
0.5
0.5
0.5
0.5
0.5
0.5
0.5
0.5
0.5
0.5
0.5
0.5
0.5
0.5
0.5
0.5
0.5
0.5
0.5
0.5
0.5
0.5
0.5
0.5
0.5
0.5
0.5
0.5
0.5
0.5
0.5
0.5
0.5
0.5
0.5
0.5
0.5
0.5
0.5
0.5
0.5
0.5
0.5
0.5
0.5
0.5
0.5
0.5
0.5
0.5
0.5
0.5
0.5
0.5
0.5
0.5
0.5
0.5
0.5
0.5
0.5
0.5
0.5
0.5
0.5
0.5
0.5
0.5
0.5
0.5
0.5
0.5
0.5
0.5
0.5
0.5
0.5
0.5
0.5
0.5
0.5
0.5
0.5
0.5
0.5
0.5
0.5
0.5
0.5
0.5
0.5
0.5
0.5
0.5
0.5
0.5
0.5
0.5
0.5
0.5
0.5
0.5
0.5
0.5
0.5
0.5
0.5
0.5
0.5
0.5
0.5
0.5
0.5
0.5
0.5
0.5
0.5
0.5
0.5
0.5
0.5
0.5
0.5
0.5
0.5
0.5
0.5
0.5
0.5
0.5
0.5
0.5
0.5
0.5
0.5
0.5
0.5
0.5
0.5
0.5
0.5
0.5
0.5
0.5
0.5
0.5
0.5
0.5
0.5
0.5
0.5
0.5
0.5
0.5
0.5
0.5
0.5
0.5
0.5
0.5
0.5
0.5
0.5
0.5
0.5
0.5
0.5
0.5
0.5
0.5
0.5
0.5
0.5
0.5
0.5
0.5
0.5
0.5
0.5
0.5
0.5
0.5
0.5
0.5
0.5
0.5
0.5
0.5
0.5
0.5
0.5
0.5
0.5
0.5
0.5
0.5
0.5
0.5
0.5
0.5
0.5
0.5
0.5
0.5
0.5
0.5
0.5
0.5
0.5
0.5
0.5
0.5
0.5
0.5
0.5
0.5
0.5
0.5
0.5
0.5
0.5
0.5
0.5
0.5
0.5
0.5
0.5
0.5
0.5
0.5
0.5
0.5
0.5
0.5
0.5
0.5
0.5
0.5
0.5
0.5
0.5
0.5
0.5
0.5
0.5
0.5
0.5
0.5
0.5
0.5
0.5
0.5
0.5
0.5
0.5
0.5
0.5
0.5
0.5
0.5
0.5
0.5
0.5
0.5
0.5
0.5
0.5
0.5
0.5
0.5
0.5
0.5
0.5
0.5
0.5
0.5
0.5
0.5
0.5
0.5
0.5
0.5
0.5
0.5
0.5
0.5
0.5
0.5
0.5
0.5
0.5
0.5
0.5
0.5
0.5
0.5
0.5
0.5
0.5
0.5
0.5
0.5
0.5
0.5
0.5
0.5
0.5
0.5
0.5
0.5
0.5
0.5
0.5
0.5
0.5
0.5
0.5
0.5
0.5
0.5
0.5
0.5
0.5
0.5
0.5
0.5
0.5
0.5
0.5
0.5
0.5
0.5
0.5
0.5
0.5
0.5
0.5
0.5
0.5
0.5
0.5
0.5
0.5
0.5
0.5
0.5
0.5
0.5
0.5
0.5
0.5
0.5
0.5
0.5
0.5
0.5
0.5
0.5
0.5
0.5
0.5
0.5
0.5
0.5
0.5
0.5
0.5
0.5
0.5
0.5
0.5
0.5
0.5
0.5
0.5
0.5
0.5
0.5
0.5
0.5
0.5
0.5
0.5
0.5
0.5
0.5
0.5
0.5
0.5
0.5
0.5
0.5
0.5
0.5
0.5
0.5
0.5
0.5
0.5
0.5
0.5
0.5
0.5
0.5
0.5
0.5
0.5
0.5
0.5
0.5
0.5
0.5
0.5
0.5
0.5
0.5
0.5
0.5
0.5
0.5
0.5
0.5
0.5
0.5
0.5
0.5
0.5
0.5
0.5
0.5
0.5
0.5
0.5
0.5
0.5
0.5
0.5
0.5
0.5
0.5
0.5
0.5
0.5
0.5
0.5
0.5
0.5
0.5
0.5
0.5
0.5
0.5
0.5
0.5
0.5
0.5
0.5
0.5
0.5
0.5
0.5
