# vtk DataFile Version 2.0
Title Data
ASCII
DATASET UNSTRUCTURED_GRID
POINTS 360 float
0.437327 0.061702 0.300106
0.570285 0.098241 0.560796
0.058336 0.099600 0.299301
0.104053 0.051354 0.151862
0.726064 0.058543 0.512537
0.606726 0.171044 0.535317
0.184103 0.099877 0.205853
0.298327 0.044535 0.324913
0.449801 0.048288 0.635901
0.538049 0.014613 0.590260
0.099608 0.048628 0.300395
0.383521 0.005728 0.541759
0.255600 0.005834 0.599069
0.401885 0.078228 0.654065
0.192417 0.091682 0.540514
0.504666 0.012990 0.612486
0.562215 0.061978 0.663915
0.594389 0.093282 0.653251
0.011005 0.097932 0.300344
0.190734 0.041604 0.596401
0.099533 0.054045 0.379687
0.326581 0.012858 0.786941
0.101346 0.099917 0.299642
0.474370 0.100213 0.760059
0.262688 0.099934 0.295727
0.399295 0.018939 0.174791
0.396810 0.044084 0.048482
0.372783 0.052528 0.299831
0.294409 0.098608 0.206500
0.385441 0.099967 0.350110
0.138373 0.012860 0.189170
0.453927 0.018422 0.589804
0.386585 0.007704 0.317986
0.500472 0.086941 0.517949
0.397418 0.052461 0.552298
0.479411 0.013950 0.652930
0.413401 0.067760 0.697932
0.526217 0.050713 0.634786
0.346016 0.099322 0.558671
0.489271 0.070242 0.651691
0.556178 0.107723 0.632054
0.594151 0.000495 0.648540
0.366700 0.056784 0.701087
0.195403 0.025193 0.639689
0.175831 0.078113 0.619539
0.382921 0.099988 0.724793
0.373468 0.047140 0.749608
0.443505 0.100298 0.720010
0.339802 0.070332 0.121680
0.387761 0.099763 0.301481
0.299924 0.099929 0.305844
0.338123 0.098270 0.009456
0.225293 0.067428 0.407249
0.491904 0.009563 0.566031
0.196505 0.030414 0.242077
0.427643 0.099948 0.465903
0.418846 0.049959 0.598413
0.226823 0.041387 0.320892
0.209549 0.000350 0.417753
0.149425 0.099753 0.370501
0.336607 0.006162 0.576266
0.287552 0.099491 0.548870
0.529146 0.099971 0.598261
0.356358 0.056274 0.531337
0.391198 0.100116 0.690693
0.597641 0.048508 0.637845
0.276756 0.054662 0.609473
0.399216 0.031972 0.667648
0.179089 0.099503 0.793928
0.281402 0.099748 0.653932
0.214747 0.099838 0.718919
0.099627 0.099780 0.606798
0.240745 0.099738 0.254439
0.360662 0.099725 0.144901
0.133816 0.088250 0.264628
0.334311 0.099956 0.248152
0.222107 0.099313 0.299829
0.099272 0.099989 0.099940
0.310552 0.099879 0.295306
0.191488 0.078982 0.253164
0.274122 0.054757 0.295122
0.283414 0.099804 0.392728
0.514970 0.060049 0.590286
0.382633 0.099951 0.528642
0.168768 0.099840 0.298011
0.316385 0.099972 0.504240
0.162375 0.012292 0.456777
0.322898 0.054306 0.568064
0.286713 0.007378 0.297532
0.196555 0.027847 0.781315
0.197392 0.098673 0.756433
0.099369 0.054462 0.599821
0.098950 0.099645 0.580004
0.197784 0.099985 0.680177
0.330527 0.066318 0.796964
0.142894 0.105412 0.603533
0.345444 0.099958 0.324392
0.477983 0.056010 0.546022
0.331717 0.092371 0.368126
0.431984 0.099892 0.314856
0.149166 0.099905 0.152903
0.275103 0.099639 0.453366
0.478714 0.098141 0.299466
0.583852 0.102399 0.461921
0.365357 0.039754 0.486812
0.398039 0.094912 0.577828
0.199540 0.099685 0.346921
0.454435 0.121293 0.600485
0.449970 0.040061 0.681366
0.313724 0.099977 0.596899
0.262353 0.099651 0.500096
0.408840 0.185475 0.595210
0.378385 0.051626 0.629079
0.400592 0.129220 0.600140
0.444170 0.141962 0.639409
0.469761 0.224068 0.597494
0.193711 0.099899 0.587310
0.261587 0.099993 0.594569
0.237118 0.099883 0.637322
0.454220 0.199823 0.640119
0.342025 0.006702 0.094616
0.363470 0.051225 0.088770
0.635085 0.044405 0.454548
0.408470 0.026320 0.299559
0.635503 0.078516 0.547935
0.674857 0.078641 0.536294
0.749078 0.102888 0.400006
0.424568 0.055109 0.491677
0.718451 0.112520 0.299851
0.651604 0.059632 0.499434
0.616715 0.096361 0.565398
0.522625 0.042144 0.555961
0.660434 0.076801 0.587572
0.557623 0.065195 0.583088
0.360406 0.100487 0.652505
0.573066 0.100139 0.600162
0.699983 0.116599 0.587122
0.609328 0.074538 0.604737
0.690168 0.099935 0.700071
0.493815 0.014424 0.726417
0.587242 0.017226 0.768750
0.440943 0.017864 0.766150
0.442872 0.069065 0.752669
0.499187 0.099993 0.720752
0.321551 0.099711 0.071735
0.189214 0.062253 0.177913
0.787787 0.154783 0.298833
0.692244 0.078643 0.269807
0.534342 0.056294 0.499012
0.687461 0.091488 0.489964
0.572282 0.023294 0.497528
0.633151 0.147691 0.476092
0.690928 0.037992 0.511123
0.581109 0.044700 0.225522
0.419390 0.099908 0.621958
0.624304 0.003127 0.561139
0.604421 0.115244 0.598475
0.188518 0.040879 0.385731
0.461237 0.099453 0.699514
0.553377 0.013178 0.639690
0.490294 0.061095 0.694724
0.676311 0.101810 0.656859
0.643456 0.100045 0.622816
0.560890 0.099658 0.717712
0.521884 0.099626 0.700506
0.184298 0.055536 0.698478
0.429549 0.023676 0.719723
0.526173 0.099974 0.760544
0.327577 0.052970 0.299996
0.342910 0.004884 0.299611
0.383744 0.099838 0.248052
0.633665 0.089632 0.466613
0.476523 0.033936 0.494942
0.627083 0.197118 0.468671
0.424811 0.100619 0.567768
0.513827 0.097658 0.457155
0.618168 0.098038 0.503213
0.485733 0.054105 0.604365
0.551249 0.100212 0.516263
0.487868 0.146136 0.563747
0.225716 0.099891 0.398970
0.524204 0.099742 0.555878
0.453335 0.071302 0.580398
0.499915 0.099958 0.600572
0.499980 0.109062 0.678626
0.537989 0.097503 0.667435
0.349105 0.100375 0.696217
0.518643 0.098661 0.630339
0.588717 0.132338 0.677979
0.481781 0.057615 0.741076
0.099595 0.097173 0.676972
0.426084 0.113051 0.671887
0.286863 0.099644 0.253398
0.433593 0.148073 0.572432
0.381703 0.087150 0.202070
0.698045 0.211451 0.392285
0.373000 0.099800 0.468669
0.468605 0.080958 0.476890
0.658542 0.186140 0.391166
0.655231 0.113426 0.503178
0.435882 0.098835 0.517838
0.485312 0.099999 0.571969
0.454135 0.191304 0.565266
0.497786 0.188928 0.584559
0.362765 0.100367 0.608791
0.495950 0.145469 0.603871
0.390517 0.150807 0.640174
0.459384 0.171120 0.606594
0.450865 0.085929 0.660610
0.461230 0.097962 0.619370
0.542349 0.187249 0.599673
0.628004 0.168028 0.639517
0.347201 0.099846 0.759135
0.488328 0.122720 0.642098
0.464311 0.138994 0.678373
0.637776 0.144811 0.680144
0.690709 0.094717 0.361723
0.575727 0.098726 0.135812
0.688371 0.134342 0.387237
0.400028 0.099945 0.158486
0.574728 0.134870 0.536519
0.576604 0.057762 0.194005
0.654216 0.107489 0.406680
0.675591 0.064745 0.460814
0.499813 0.104722 0.472346
0.670198 0.177122 0.474054
0.400306 0.099617 0.291906
0.580076 0.099109 0.320885
0.518802 0.199743 0.546729
0.544951 0.193059 0.504132
0.354016 0.093539 0.283002
0.582711 0.163179 0.491246
0.494380 0.170412 0.646300
0.579247 0.199883 0.622703
0.502075 0.199981 0.615185
0.538180 0.231787 0.512631
0.543649 0.174321 0.646678
0.642763 0.208181 0.599727
0.469338 0.185829 0.682999
0.585662 0.200087 0.510090
0.499946 0.078982 0.333658
0.789238 0.066568 0.458376
0.739907 0.100942 0.445582
0.400107 0.055978 0.267100
0.696694 0.030760 0.553978
0.733571 0.125838 0.370984
0.667112 0.009426 0.399096
0.695656 0.099969 0.300349
0.726348 0.011169 0.529553
0.700249 0.075904 0.562412
0.693757 0.144430 0.510366
0.784767 0.134602 0.342769
0.561613 0.059145 0.622004
0.720150 0.108564 0.542877
0.649136 0.117446 0.593975
0.716934 0.004314 0.579781
0.685216 0.060154 0.635876
0.697384 0.009098 0.609611
0.668462 0.006034 0.648868
0.761494 0.096945 0.616412
0.526476 0.053013 0.730674
0.716172 0.002663 0.651712
0.755203 0.021944 0.672880
0.730229 0.056021 0.648479
0.757797 0.094957 0.347651
0.776656 0.100229 0.479123
0.592121 0.053746 0.560111
0.764415 0.045822 0.426988
0.667902 0.017907 0.474660
0.708868 0.033200 0.485996
0.399438 0.099356 0.099600
0.575656 0.067010 0.478228
0.795024 0.099374 0.412099
0.777762 0.122830 0.443948
0.666123 0.003972 0.581115
0.697070 0.050860 0.594766
0.669177 0.111828 0.551392
0.699599 0.100534 0.500889
0.608529 0.013385 0.603111
0.629662 0.045692 0.581279
0.628853 0.024292 0.644328
0.741784 0.047074 0.600015
0.529145 0.033701 0.677217
0.648472 0.059527 0.665932
0.574063 0.022936 0.685968
0.746927 0.099883 0.665146
0.589587 0.069579 0.696007
0.719034 0.059147 0.695929
0.499786 0.030920 0.316607
0.705651 0.147047 0.465042
0.489272 0.099990 0.087444
0.730360 0.005728 0.454352
0.651902 0.056531 0.388626
0.779900 0.015854 0.394443
0.695524 0.060825 0.074909
0.710995 0.081952 0.398047
0.589628 0.139300 0.573825
0.581540 0.024757 0.595327
0.590669 0.187724 0.581086
0.660843 0.041881 0.558065
0.599891 0.100158 0.600251
0.615602 0.124416 0.523749
0.562787 0.213347 0.551102
0.683188 0.150583 0.556968
0.524686 0.143102 0.620664
0.653763 0.038338 0.611917
0.542194 0.136117 0.580913
0.635207 0.140301 0.559318
0.622452 0.099641 0.700127
0.625663 0.100305 0.659589
0.600163 0.129192 0.634818
0.703766 0.093131 0.500339
0.750495 0.060656 0.382463
0.709601 0.040482 0.415281
0.447774 0.099988 0.048496
0.758965 0.036197 0.480784
0.772691 0.099973 0.300464
0.591525 0.099909 0.206365
0.728513 0.058035 0.452055
0.722491 0.100392 0.489797
0.555870 0.169417 0.560838
0.657617 0.199942 0.429124
0.685562 0.099741 0.196488
0.700006 0.100054 0.450204
0.646640 0.191701 0.555108
0.740757 0.059400 0.554298
0.752138 0.102635 0.513414
0.771093 0.011474 0.525982
0.569992 0.151894 0.611984
0.777293 0.032917 0.569704
0.651133 0.159250 0.520384
0.768162 0.099963 0.559873
0.685219 0.100025 0.605077
0.797790 0.400081 0.560040
0.714277 0.099910 0.632406
0.726124 0.166350 0.543764
0.368692 0.099977 0.050960
0.699458 0.099776 0.099956
0.562766 0.099659 0.383028
0.655311 0.153128 0.425807
0.783597 0.173393 0.380688
0.793786 0.071274 0.371849
0.593827 0.145429 0.452294
0.599680 0.099457 0.177371
0.710927 0.185255 0.497220
0.701913 0.109575 0.407339
0.734605 0.110351 0.243923
0.599140 0.051342 0.158593
0.735907 0.186921 0.383638
0.773129 0.062347 0.520909
0.702041 0.163884 0.415512
0.665855 0.122506 0.456293
0.624128 0.163039 0.593754
0.750846 0.149118 0.472182
0.632193 0.200412 0.503891
0.670804 0.167155 0.597366
0.728465 0.099214 0.586445
0.788418 0.123266 0.520840
0.617209 0.242161 0.484240
0.679829 0.201039 0.512849

CELL_TYPES 360
1
1
1
1
1
1
1
1
1
1
1
1
1
1
1
1
1
1
1
1
1
1
1
1
1
1
1
1
1
1
1
1
1
1
1
1
1
1
1
1
1
1
1
1
1
1
1
1
1
1
1
1
1
1
1
1
1
1
1
1
1
1
1
1
1
1
1
1
1
1
1
1
1
1
1
1
1
1
1
1
1
1
1
1
1
1
1
1
1
1
1
1
1
1
1
1
1
1
1
1
1
1
1
1
1
1
1
1
1
1
1
1
1
1
1
1
1
1
1
1
1
1
1
1
1
1
1
1
1
1
1
1
1
1
1
1
1
1
1
1
1
1
1
1
1
1
1
1
1
1
1
1
1
1
1
1
1
1
1
1
1
1
1
1
1
1
1
1
1
1
1
1
1
1
1
1
1
1
1
1
1
1
1
1
1
1
1
1
1
1
1
1
1
1
1
1
1
1
1
1
1
1
1
1
1
1
1
1
1
1
1
1
1
1
1
1
1
1
1
1
1
1
1
1
1
1
1
1
1
1
1
1
1
1
1
1
1
1
1
1
1
1
1
1
1
1
1
1
1
1
1
1
1
1
1
1
1
1
1
1
1
1
1
1
1
1
1
1
1
1
1
1
1
1
1
1
1
1
1
1
1
1
1
1
1
1
1
1
1
1
1
1
1
1
1
1
1
1
1
1
1
1
1
1
1
1
1
1
1
1
1
1
1
1
1
1
1
1
1
1
1
1
1
1
1
1
1
1
1
1
1
1
1
1
1
1
1
1
1
1
1
1
1
1
1
1
1
1
1
1
1
1
1
1
1
1
1
1
1
1

POINT_DATA 360
SCALARS radius float
LOOKUP_TABLE default
0.5
0.5
0.5
0.5
0.5
0.5
0.5
0.5
0.5
0.5
0.5
0.5
0.5
0.5
0.5
0.5
0.5
0.5
0.5
0.5
0.5
0.5
0.5
0.5
0.5
0.5
0.5
0.5
0.5
0.5
0.5
0.5
0.5
0.5
0.5
0.5
0.5
0.5
0.5
0.5
0.5
0.5
0.5
0.5
0.5
0.5
0.5
0.5
0.5
0.5
0.5
0.5
0.5
0.5
0.5
0.5
0.5
0.5
0.5
0.5
0.5
0.5
0.5
0.5
0.5
0.5
0.5
0.5
0.5
0.5
0.5
0.5
0.5
0.5
0.5
0.5
0.5
0.5
0.5
0.5
0.5
0.5
0.5
0.5
0.5
0.5
0.5
0.5
0.5
0.5
0.5
0.5
0.5
0.5
0.5
0.5
0.5
0.5
0.5
0.5
0.5
0.5
0.5
0.5
0.5
0.5
0.5
0.5
0.5
0.5
0.5
0.5
0.5
0.5
0.5
0.5
0.5
0.5
0.5
0.5
0.5
0.5
0.5
0.5
0.5
0.5
0.5
0.5
0.5
0.5
0.5
0.5
0.5
0.5
0.5
0.5
0.5
0.5
0.5
0.5
0.5
0.5
0.5
0.5
0.5
0.5
0.5
0.5
0.5
0.5
0.5
0.5
0.5
0.5
0.5
0.5
0.5
0.5
0.5
0.5
0.5
0.5
0.5
0.5
0.5
0.5
0.5
0.5
0.5
0.5
0.5
0.5
0.5
0.5
0.5
0.5
0.5
0.5
0.5
0.5
0.5
0.5
0.5
0.5
0.5
0.5
0.5
0.5
0.5
0.5
0.5
0.5
0.5
0.5
0.5
0.5
0.5
0.5
0.5
0.5
0.5
0.5
0.5
0.5
0.5
0.5
0.5
0.5
0.5
0.5
0.5
0.5
0.5
0.5
0.5
0.5
0.5
0.5
0.5
0.5
0.5
0.5
0.5
0.5
0.5
0.5
0.5
0.5
0.5
0.5
0.5
0.5
0.5
0.5
0.5
0.5
0.5
0.5
0.5
0.5
0.5
0.5
0.5
0.5
0.5
0.5
0.5
0.5
0.5
0.5
0.5
0.5
0.5
0.5
0.5
0.5
0.5
0.5
0.5
0.5
0.5
0.5
0.5
0.5
0.5
0.5
0.5
0.5
0.5
0.5
0.5
0.5
0.5
0.5
0.5
0.5
0.5
0.5
0.5
0.5
0.5
0.5
0.5
0.5
0.5
0.5
0.5
0.5
0.5
0.5
0.5
0.5
0.5
0.5
0.5
0.5
0.5
0.5
0.5
0.5
0.5
0.5
0.5
0.5
0.5
0.5
0.5
0.5
0.5
0.5
0.5
0.5
0.5
0.5
0.5
0.5
0.5
0.5
0.5
0.5
0.5
0.5
0.5
0.5
0.5
0.5
0.5
0.5
0.5
0.5
0.5
0.5
0.5
0.5
0.5
0.5
0.5
0.5
0.5
0.5
0.5
0.5
0.5
0.5
0.5
0.5
0.5
0.5
0.5
0.5
0.5
0.5
0.5
0.5
0.5
0.5
0.5
0.5
0.5
0.5
