# vtk DataFile Version 2.0
Title Data
ASCII
DATASET UNSTRUCTURED_GRID
POINTS 360 float
0.394488 0.078691 0.353118
0.562913 0.001387 0.490993
0.084146 0.099958 0.350157
0.164755 0.049696 0.190336
0.683136 0.080278 0.442729
0.590826 0.162733 0.471845
0.173401 0.099844 0.270777
0.289683 0.045658 0.411612
0.420133 0.071834 0.544383
0.528807 0.030994 0.504345
0.099833 0.050456 0.399521
0.282178 0.006289 0.530444
0.262733 0.013720 0.602124
0.360178 0.086600 0.604875
0.156310 0.095189 0.517020
0.488373 0.041840 0.530891
0.539999 0.066536 0.609554
0.577570 0.095972 0.615598
0.039500 0.098818 0.399665
0.185336 0.050617 0.629764
0.151380 0.053999 0.477123
0.190513 0.018309 0.754156
0.092816 0.099952 0.399837
0.459701 0.099850 0.756751
0.239267 0.099778 0.293979
0.453726 0.019351 0.154315
0.401639 0.044094 0.048520
0.292979 0.050839 0.331596
0.216329 0.099611 0.234644
0.311529 0.099988 0.373365
0.155314 0.015908 0.245940
0.383100 0.031618 0.563343
0.320724 0.018970 0.362185
0.511604 0.099826 0.480132
0.277851 0.055141 0.547922
0.448052 0.032123 0.563757
0.382119 0.065214 0.656044
0.518846 0.074295 0.568202
0.254549 0.099745 0.552058
0.465871 0.075885 0.566909
0.552373 0.100524 0.575455
0.578212 0.030182 0.614328
0.320467 0.065730 0.684829
0.198659 0.025549 0.677116
0.197690 0.091391 0.653886
0.323008 0.096431 0.720333
0.198027 0.056192 0.722106
0.419328 0.099965 0.698373
0.213210 0.078838 0.097976
0.322948 0.099947 0.312418
0.260369 0.104191 0.366519
0.385100 0.098361 0.011880
0.234721 0.081410 0.463291
0.418968 0.036397 0.508598
0.165365 0.043661 0.305681
0.391277 0.093379 0.464315
0.343330 0.049367 0.580181
0.213964 0.042505 0.436779
0.225207 0.004067 0.479302
0.155003 0.099757 0.448257
0.229379 0.010571 0.563283
0.191528 0.100840 0.539349
0.528743 0.105195 0.533206
0.225477 0.057539 0.501172
0.368926 0.014376 0.663078
0.576651 0.059565 0.579440
0.197510 0.052370 0.589418
0.341880 0.042615 0.632536
0.168189 0.099633 0.751840
0.287648 0.099920 0.658851
0.290184 0.099136 0.701619
0.152067 0.099851 0.691291
0.211156 0.100039 0.300293
0.331128 0.099781 0.101435
0.116528 0.099873 0.263067
0.265179 0.099673 0.264354
0.206067 0.099998 0.342832
0.099272 0.099989 0.099940
0.250522 0.099610 0.322868
0.179948 0.085464 0.312063
0.260366 0.058472 0.369963
0.286608 0.099874 0.445648
0.498375 0.070739 0.500159
0.309491 0.099783 0.531816
0.099920 0.099259 0.300586
0.252983 0.099925 0.506105
0.185984 0.010367 0.497187
0.196287 0.052166 0.544902
0.233528 0.027819 0.308815
0.162440 0.030293 0.713944
0.180420 0.099753 0.798149
0.131086 0.057817 0.662789
0.099758 0.099907 0.518687
0.199641 0.099974 0.693390
0.195700 0.064450 0.768665
0.150773 0.099891 0.640004
0.294326 0.099948 0.337492
0.394645 0.076728 0.499593
0.293855 0.094033 0.399897
0.431079 0.098270 0.284852
0.184004 0.102928 0.179402
0.288895 0.099976 0.491955
0.470947 0.100931 0.360444
0.561863 0.099947 0.388023
0.299599 0.044783 0.506534
0.337810 0.099978 0.563594
0.196720 0.099686 0.407133
0.457859 0.136446 0.516145
0.415640 0.046904 0.603519
0.221903 0.099895 0.585516
0.197913 0.099916 0.498737
0.415229 0.187604 0.501243
0.263959 0.059640 0.594944
0.390386 0.131914 0.527479
0.441103 0.148256 0.571292
0.461831 0.222379 0.531705
0.163890 0.099879 0.576240
0.194555 0.099114 0.608290
0.238216 0.099871 0.626706
0.444565 0.189119 0.599561
0.386684 0.007351 0.094593
0.397234 0.056036 0.096303
0.599812 0.056240 0.346133
0.447899 0.041115 0.212983
0.636155 0.100144 0.490470
0.657782 0.022550 0.451779
0.716378 0.100101 0.433129
0.344761 0.051672 0.499433
0.759712 0.123126 0.326427
0.616485 0.088410 0.423473
0.601032 0.099865 0.500356
0.525281 0.061650 0.475975
0.632215 0.091236 0.536689
0.568059 0.099870 0.499904
0.306500 0.099939 0.614755
0.558125 0.016707 0.536031
0.680117 0.099996 0.538946
0.599970 0.092827 0.561292
0.678088 0.099949 0.693006
0.462537 0.017029 0.682487
0.588620 0.017226 0.757959
0.377154 0.018955 0.762420
0.354294 0.066248 0.747344
0.500276 0.099908 0.700173
0.375375 0.099466 0.086051
0.199283 0.076996 0.192324
0.719987 0.156252 0.307756
0.726769 0.105485 0.196812
0.559484 0.088648 0.456475
0.667030 0.099684 0.402570
0.566688 0.046965 0.472925
0.608268 0.147234 0.437277
0.669682 0.052462 0.417747
0.721308 0.058484 0.300707
0.413923 0.101768 0.572924
0.604375 0.022469 0.493508
0.590852 0.003216 0.564244
0.197676 0.050357 0.472208
0.425615 0.008909 0.633980
0.543451 0.025438 0.581709
0.447905 0.070055 0.630726
0.660312 0.093655 0.640098
0.619246 0.099948 0.599966
0.520920 0.099958 0.689713
0.519018 0.005795 0.679820
0.137875 0.052563 0.757043
0.358789 0.027588 0.706874
0.517813 0.099943 0.748782
0.269377 0.063639 0.297755
0.274534 0.018641 0.289355
0.336972 0.099369 0.260434
0.596930 0.099943 0.400723
0.462152 0.038081 0.499769
0.600012 0.199324 0.406825
0.416643 0.099927 0.500006
0.562230 0.099807 0.355226
0.599990 0.106353 0.457772
0.450012 0.075640 0.505685
0.515547 0.112391 0.462621
0.489367 0.147611 0.483060
0.199129 0.099851 0.456754
0.537281 0.099626 0.499948
0.379478 0.087716 0.543304
0.495716 0.107742 0.549866
0.474096 0.104808 0.645089
0.513086 0.095007 0.642795
0.340468 0.095863 0.650538
0.509658 0.100359 0.599992
0.577367 0.133616 0.644497
0.453963 0.066003 0.685406
0.115877 0.097802 0.733725
0.405128 0.104459 0.651009
0.199488 0.099698 0.275802
0.435102 0.140968 0.483500
0.335228 0.085619 0.190910
0.656229 0.199940 0.389876
0.336926 0.099954 0.475838
0.460054 0.099952 0.481480
0.610973 0.191785 0.368654
0.642051 0.110400 0.441534
0.351453 0.100034 0.502224
0.488111 0.105727 0.500085
0.458805 0.193390 0.485665
0.500419 0.195722 0.500052
0.285237 0.099921 0.580685
0.499859 0.153788 0.526643
0.369175 0.165330 0.562848
0.454648 0.179564 0.531558
0.411321 0.099058 0.605337
0.452112 0.109259 0.547337
0.520102 0.186498 0.555147
0.602822 0.162672 0.602213
0.198922 0.099904 0.718159
0.477465 0.123911 0.591178
0.434010 0.139973 0.618228
0.613856 0.164736 0.651188
0.690357 0.099742 0.294132
0.589631 0.099411 0.106475
0.633114 0.093270 0.329642
0.378179 0.099851 0.133434
0.569395 0.128479 0.433418
0.669729 0.059097 0.180721
0.599915 0.099922 0.364093
0.636985 0.092724 0.375601
0.499788 0.142790 0.357229
0.640179 0.171330 0.423400
0.441766 0.099149 0.203533
0.599780 0.121945 0.302301
0.505311 0.213508 0.511962
0.521469 0.198109 0.458319
0.300238 0.099571 0.287567
0.558418 0.190566 0.429089
0.482561 0.167953 0.569466
0.560500 0.184079 0.583351
0.489725 0.201653 0.601952
0.524861 0.238770 0.475347
0.520222 0.179450 0.602622
0.623194 0.199968 0.577404
0.447550 0.186819 0.656766
0.572311 0.200715 0.467147
0.529832 0.076031 0.352115
0.747373 0.093888 0.408691
0.700308 0.100234 0.451440
0.377116 0.053487 0.196912
0.780795 0.045425 0.470108
0.762558 0.127107 0.385708
0.668739 0.022028 0.318959
0.777879 0.117337 0.274068
0.700058 0.054366 0.489768
0.672587 0.076280 0.476838
0.667808 0.120214 0.466539
0.699597 0.127554 0.370611
0.551045 0.064210 0.538558
0.693453 0.100130 0.499984
0.627579 0.015541 0.536509
0.685198 0.019118 0.532740
0.659199 0.062287 0.599070
0.682362 0.022846 0.580564
0.652148 0.018266 0.615883
0.738377 0.097890 0.601234
0.499918 0.054309 0.722132
0.694323 0.008915 0.635278
0.735435 0.020065 0.658788
0.698555 0.064084 0.634094
0.793772 0.101234 0.357972
0.752230 0.013982 0.405313
0.599396 0.080861 0.485103
0.699385 0.061334 0.385019
0.627050 0.033955 0.398518
0.759175 0.052061 0.433272
0.461518 0.099356 0.099600
0.592452 0.008293 0.341242
0.727749 0.099900 0.369700
0.748654 0.003744 0.449869
0.655106 0.035837 0.488734
0.665008 0.061220 0.518349
0.652796 0.099413 0.500386
0.699824 0.005849 0.489426
0.595880 0.047640 0.540646
0.619393 0.059238 0.507206
0.618078 0.039600 0.581515
0.709224 0.055608 0.556727
0.499382 0.048119 0.636362
0.627002 0.059392 0.625758
0.544268 0.035205 0.648172
0.729197 0.099666 0.649446
0.562473 0.078734 0.663269
0.705139 0.059418 0.682970
0.564664 0.040313 0.373478
0.692478 0.125116 0.415121
0.629485 0.099894 0.099870
0.696588 0.014163 0.398689
0.665375 0.064399 0.299795
0.716934 0.029255 0.357709
0.726434 0.074202 0.083876
0.678044 0.087830 0.361859
0.561588 0.127670 0.477705
0.573326 0.051237 0.505844
0.581822 0.172421 0.510812
0.631326 0.066445 0.461788
0.576917 0.100026 0.538118
0.600064 0.128999 0.500133
0.549722 0.199975 0.523805
0.650329 0.129593 0.512282
0.521732 0.138608 0.577933
0.654089 0.052638 0.555673
0.542768 0.142248 0.512745
0.608431 0.133059 0.535099
0.600932 0.106095 0.677095
0.608497 0.105236 0.616054
0.586094 0.124706 0.596007
0.775780 0.090839 0.485005
0.770925 0.077403 0.326916
0.748365 0.057358 0.383927
0.591107 0.099979 0.052505
0.714706 0.053462 0.414360
0.698941 0.116490 0.327987
0.745593 0.093872 0.257645
0.796359 0.067991 0.409019
0.698770 0.034630 0.452372
0.543987 0.171855 0.485896
0.628985 0.202231 0.444630
0.756808 0.170458 0.197492
0.763089 0.101115 0.442118
0.618026 0.184508 0.530076
0.710977 0.055076 0.511298
0.701137 0.100006 0.499903
0.740543 0.029538 0.486818
0.556725 0.149421 0.550657
0.749724 0.038500 0.534184
0.633973 0.147673 0.473899
0.744568 0.099641 0.525445
0.655069 0.100529 0.573753
0.797790 0.400081 0.560040
0.688220 0.099987 0.600782
0.692474 0.163865 0.516146
0.397887 0.099974 0.053597
0.779719 0.115755 0.099885
0.597142 0.099375 0.331405
0.599665 0.150592 0.394832
0.722956 0.180877 0.393944
0.718377 0.091309 0.334264
0.557281 0.154119 0.391531
0.672360 0.104277 0.191969
0.677010 0.157052 0.446919
0.700308 0.099654 0.400560
0.733954 0.128231 0.254615
0.738382 0.085961 0.215426
0.672984 0.195243 0.351381
0.729169 0.065194 0.458433
0.676554 0.160302 0.397152
0.636350 0.128059 0.399841
0.598954 0.160992 0.567293
0.710683 0.139388 0.474350
0.618391 0.198142 0.486049
0.651728 0.156409 0.546371
0.702581 0.099789 0.572519
0.732754 0.100375 0.480103
0.601725 0.240115 0.493231
0.666154 0.186729 0.479827

CELL_TYPES 360
1
1
1
1
1
1
1
1
1
1
1
1
1
1
1
1
1
1
1
1
1
1
1
1
1
1
1
1
1
1
1
1
1
1
1
1
1
1
1
1
1
1
1
1
1
1
1
1
1
1
1
1
1
1
1
1
1
1
1
1
1
1
1
1
1
1
1
1
1
1
1
1
1
1
1
1
1
1
1
1
1
1
1
1
1
1
1
1
1
1
1
1
1
1
1
1
1
1
1
1
1
1
1
1
1
1
1
1
1
1
1
1
1
1
1
1
1
1
1
1
1
1
1
1
1
1
1
1
1
1
1
1
1
1
1
1
1
1
1
1
1
1
1
1
1
1
1
1
1
1
1
1
1
1
1
1
1
1
1
1
1
1
1
1
1
1
1
1
1
1
1
1
1
1
1
1
1
1
1
1
1
1
1
1
1
1
1
1
1
1
1
1
1
1
1
1
1
1
1
1
1
1
1
1
1
1
1
1
1
1
1
1
1
1
1
1
1
1
1
1
1
1
1
1
1
1
1
1
1
1
1
1
1
1
1
1
1
1
1
1
1
1
1
1
1
1
1
1
1
1
1
1
1
1
1
1
1
1
1
1
1
1
1
1
1
1
1
1
1
1
1
1
1
1
1
1
1
1
1
1
1
1
1
1
1
1
1
1
1
1
1
1
1
1
1
1
1
1
1
1
1
1
1
1
1
1
1
1
1
1
1
1
1
1
1
1
1
1
1
1
1
1
1
1
1
1
1
1
1
1
1
1
1
1
1
1
1
1
1
1
1
1
1
1
1
1
1
1
1
1
1
1
1
1
1
1
1
1
1
1

POINT_DATA 360
SCALARS radius float
LOOKUP_TABLE default
0.5
0.5
0.5
0.5
0.5
0.5
0.5
0.5
0.5
0.5
0.5
0.5
0.5
0.5
0.5
0.5
0.5
0.5
0.5
0.5
0.5
0.5
0.5
0.5
0.5
0.5
0.5
0.5
0.5
0.5
0.5
0.5
0.5
0.5
0.5
0.5
0.5
0.5
0.5
0.5
0.5
0.5
0.5
0.5
0.5
0.5
0.5
0.5
0.5
0.5
0.5
0.5
0.5
0.5
0.5
0.5
0.5
0.5
0.5
0.5
0.5
0.5
0.5
0.5
0.5
0.5
0.5
0.5
0.5
0.5
0.5
0.5
0.5
0.5
0.5
0.5
0.5
0.5
0.5
0.5
0.5
0.5
0.5
0.5
0.5
0.5
0.5
0.5
0.5
0.5
0.5
0.5
0.5
0.5
0.5
0.5
0.5
0.5
0.5
0.5
0.5
0.5
0.5
0.5
0.5
0.5
0.5
0.5
0.5
0.5
0.5
0.5
0.5
0.5
0.5
0.5
0.5
0.5
0.5
0.5
0.5
0.5
0.5
0.5
0.5
0.5
0.5
0.5
0.5
0.5
0.5
0.5
0.5
0.5
0.5
0.5
0.5
0.5
0.5
0.5
0.5
0.5
0.5
0.5
0.5
0.5
0.5
0.5
0.5
0.5
0.5
0.5
0.5
0.5
0.5
0.5
0.5
0.5
0.5
0.5
0.5
0.5
0.5
0.5
0.5
0.5
0.5
0.5
0.5
0.5
0.5
0.5
0.5
0.5
0.5
0.5
0.5
0.5
0.5
0.5
0.5
0.5
0.5
0.5
0.5
0.5
0.5
0.5
0.5
0.5
0.5
0.5
0.5
0.5
0.5
0.5
0.5
0.5
0.5
0.5
0.5
0.5
0.5
0.5
0.5
0.5
0.5
0.5
0.5
0.5
0.5
0.5
0.5
0.5
0.5
0.5
0.5
0.5
0.5
0.5
0.5
0.5
0.5
0.5
0.5
0.5
0.5
0.5
0.5
0.5
0.5
0.5
0.5
0.5
0.5
0.5
0.5
0.5
0.5
0.5
0.5
0.5
0.5
0.5
0.5
0.5
0.5
0.5
0.5
0.5
0.5
0.5
0.5
0.5
0.5
0.5
0.5
0.5
0.5
0.5
0.5
0.5
0.5
0.5
0.5
0.5
0.5
0.5
0.5
0.5
0.5
0.5
0.5
0.5
0.5
0.5
0.5
0.5
0.5
0.5
0.5
0.5
0.5
0.5
0.5
0.5
0.5
0.5
0.5
0.5
0.5
0.5
0.5
0.5
0.5
0.5
0.5
0.5
0.5
0.5
0.5
0.5
0.5
0.5
0.5
0.5
0.5
0.5
0.5
0.5
0.5
0.5
0.5
0.5
0.5
0.5
0.5
0.5
0.5
0.5
0.5
0.5
0.5
0.5
0.5
0.5
0.5
0.5
0.5
0.5
0.5
0.5
0.5
0.5
0.5
0.5
0.5
0.5
0.5
0.5
0.5
0.5
0.5
0.5
0.5
0.5
0.5
0.5
0.5
0.5
0.5
0.5
0.5
0.5
0.5
0.5
0.5
0.5
0.5
0.5
