# vtk DataFile Version 2.0
Title Data
ASCII
DATASET UNSTRUCTURED_GRID
POINTS 512 float
0.101822 0.028228 0.054317
0.099980 0.011028 0.099967
0.104184 0.071209 0.060603
0.130636 0.085009 0.012365
0.103407 0.027300 0.084082
0.071920 0.006148 0.061510
0.068112 0.089597 0.135645
0.001285 0.073691 0.090572
0.107911 0.084785 0.045522
0.052998 0.073083 0.097982
0.100899 0.055309 0.099534
0.062580 0.024782 0.093393
0.103971 0.089792 0.157122
0.129369 0.085383 0.161857
0.110776 0.033236 0.142754
0.015230 0.024291 0.139937
0.036700 0.019385 0.180704
0.102321 0.097579 0.187263
0.100009 0.076795 0.206220
0.092810 0.053405 0.179190
0.063541 0.033922 0.258395
0.019551 0.012768 0.245803
0.057597 0.085390 0.260901
0.013617 0.069512 0.248942
0.044286 0.051795 0.338733
0.057119 0.033282 0.347201
0.094861 0.077300 0.300444
0.051338 0.078349 0.318494
0.023830 0.023458 0.459137
0.097204 0.042915 0.444372
0.016542 0.091032 0.430381
0.080064 0.085731 0.445330
0.099494 0.010467 0.058238
0.099993 0.088621 0.096646
0.135988 0.065107 0.087257
0.096787 0.051559 0.053919
0.052775 0.092557 0.098695
0.062529 0.081608 0.097514
0.099960 0.027832 0.099961
0.083998 0.045839 0.025781
0.098763 0.028742 0.122599
0.130059 0.035983 0.090126
0.099966 0.000567 0.099957
0.129586 0.000711 0.046255
0.108694 0.051125 0.049894
0.099194 0.042515 0.132675
0.058169 0.070394 0.054602
0.140859 0.091024 0.130390
0.092247 0.076630 0.160490
0.099994 0.078009 0.158447
0.054959 0.057622 0.159058
0.135491 0.045545 0.181480
0.039968 0.068248 0.201073
0.065639 0.060594 0.223820
0.099982 0.015626 0.204416
0.132128 0.041818 0.216767
0.103323 0.012094 0.256710
0.051766 0.000890 0.260567
0.133139 0.054623 0.266876
0.060366 0.073558 0.277638
0.099997 0.096466 0.319799
0.044721 0.002056 0.345376
0.012881 0.046916 0.366252
0.082639 0.044986 0.385736
0.030612 0.099398 0.055062
0.097375 0.091230 0.131920
0.062097 0.042976 0.008393
0.014471 0.061880 0.125934
0.016398 0.001502 0.127209
0.045314 0.099355 0.075132
0.053958 0.039096 0.089738
0.100008 0.064956 0.099874
0.052744 0.069291 0.125504
0.008722 0.087790 0.026997
0.127832 0.016417 0.099987
0.059748 0.018365 0.131914
0.126817 0.076491 0.125698
0.099114 0.071230 0.124177
0.071040 0.007289 0.151192
0.033894 0.098231 0.166268
0.040628 0.014914 0.211103
0.100349 0.098874 0.158148
0.100019 0.037220 0.199968
0.057912 0.045991 0.190182
0.133600 0.096216 0.242547
0.100684 0.093234 0.230467
0.094582 0.059521 0.251474
0.037209 0.053604 0.249486
0.100008 0.029942 0.299965
0.017970 0.010940 0.306871
0.100020 0.047948 0.286536
0.016348 0.065551 0.295156
0.023165 0.013648 0.385140
0.099309 0.020563 0.412915
0.016244 0.051932 0.412022
0.093029 0.088480 0.400007
0.053175 0.016714 0.042910
0.099996 0.040529 0.099822
0.066084 0.061542 0.132608
0.042062 0.078874 0.022551
0.015043 0.038254 0.085340
0.042014 0.037662 0.125179
0.096905 0.063953 0.012991
0.099972 0.078490 0.099980
0.060688 0.047345 0.059191
0.019283 0.059781 0.097059
0.103341 0.000798 0.050806
0.100149 0.089740 0.067403
0.100015 0.051034 0.110727
0.097349 0.066216 0.144185
0.137469 0.007986 0.129948
0.134610 0.028005 0.131147
0.070109 0.073120 0.179002
0.100024 0.084590 0.199975
0.090604 0.029055 0.154990
0.099990 0.013973 0.199896
0.055681 0.077340 0.229691
0.090287 0.095099 0.236423
0.048413 0.035727 0.217999
0.093779 0.041136 0.237294
0.017749 0.087715 0.279403
0.099998 0.094592 0.299982
0.090821 0.040727 0.270947
0.063212 0.019365 0.302483
0.100212 0.085856 0.380854
0.062660 0.011980 0.380998
0.101876 0.053857 0.341341
0.082227 0.073699 0.343945
0.075398 0.094586 0.036668
0.167050 0.094295 0.032491
0.101018 0.033211 0.010577
0.197683 0.042440 0.130225
0.074707 0.087020 0.053945
0.183380 0.081546 0.124446
0.136839 0.047542 0.085618
0.148118 0.027213 0.103518
0.045327 0.010378 0.103606
0.130927 0.082036 0.100585
0.032267 0.033350 0.045654
0.164085 0.026796 0.023028
0.021564 0.083053 0.128191
0.140040 0.099246 0.142808
0.031475 0.048159 0.160455
0.151120 0.052455 0.137656
0.069233 0.099522 0.194567
0.162069 0.009516 0.194139
0.100041 0.065872 0.200058
0.146402 0.083091 0.202438
0.101490 0.034436 0.248306
0.133392 0.028606 0.259907
0.108118 0.085384 0.246533
0.133071 0.078530 0.268651
0.020328 0.040022 0.317041
0.138993 0.051728 0.321418
0.055531 0.095929 0.308465
0.130137 0.080210 0.343501
0.047292 0.058143 0.452197
0.122353 0.068902 0.454866
0.076602 0.019782 0.463286
0.112127 0.092877 0.421715
0.125057 0.037439 0.164707
0.177913 0.038375 0.119272
0.137687 0.098844 0.089870
0.145959 0.083695 0.084627
0.082198 0.050083 0.091460
0.135303 0.045895 0.038794
0.050493 0.095971 0.125713
0.170637 0.092938 0.124778
0.133999 0.050184 0.014151
0.138913 0.047363 0.124295
0.075240 0.024132 0.085720
0.099947 0.094388 0.099939
0.020983 0.054020 0.047673
0.040383 0.055893 0.086353
0.023833 0.020609 0.089182
0.109988 0.017284 0.010172
0.056659 0.092054 0.159710
0.042443 0.078612 0.161796
0.128398 0.065286 0.164246
0.140672 0.072209 0.177401
0.068578 0.096157 0.222358
0.069531 0.087660 0.191304
0.016529 0.048100 0.214467
0.097806 0.020814 0.225983
0.036507 0.025845 0.277654
0.141001 0.005331 0.274039
0.093064 0.076880 0.257600
0.099955 0.058397 0.300030
0.087186 0.092918 0.346440
0.099446 0.015503 0.343475
0.089236 0.067214 0.376654
0.097224 0.019925 0.368273
0.070237 0.063913 0.064069
0.132378 0.081895 0.058498
0.138948 0.007273 0.068824
0.174774 0.003323 0.117339
0.085986 0.078425 0.020628
0.174083 0.079350 0.099996
0.133530 0.093910 0.095631
0.179649 0.098898 0.059852
0.082252 0.096339 0.085009
0.137625 0.090389 0.038501
0.100014 0.098753 0.099964
0.135572 0.029373 0.059404
0.099783 0.095554 0.118358
0.140608 0.067571 0.131296
0.061661 0.042308 0.129994
0.023477 0.022191 0.014866
0.092370 0.013561 0.169420
0.135239 0.022011 0.176079
0.100013 0.052696 0.200074
0.149460 0.056835 0.196550
0.063436 0.020936 0.235637
0.079356 0.032693 0.188589
0.134438 0.070901 0.225058
0.013264 0.063499 0.180959
0.088773 0.027874 0.331587
0.132601 0.007388 0.315174
0.074035 0.053572 0.313460
0.108871 0.076293 0.299972
0.052444 0.021115 0.421801
0.106044 0.040133 0.400008
0.064621 0.056651 0.413652
0.135017 0.067434 0.394278
0.139825 0.064541 0.001999
0.167996 0.070060 0.065363
0.079464 0.010019 0.005239
0.166758 0.009898 0.070117
0.090888 0.073373 0.096577
0.172315 0.062457 0.033859
0.101400 0.091201 0.000390
0.181865 0.019777 0.127821
0.051557 0.096745 0.006807
0.131882 0.060494 0.057432
0.046724 0.055907 0.009812
0.138115 0.019949 0.029555
0.030620 0.077509 0.054968
0.032131 0.086634 0.080297
0.097353 0.008973 0.132555
0.076138 0.028486 0.044340
0.134775 0.097509 0.167549
0.138506 0.000166 0.192177
0.099185 0.053347 0.156833
0.053155 0.029774 0.166750
0.019504 0.094596 0.191701
0.032582 0.089196 0.216211
0.000252 0.032974 0.179490
0.096499 0.059827 0.223330
0.091526 0.005901 0.281170
0.099024 0.095199 0.275124
0.050192 0.050209 0.287073
0.120255 0.033894 0.300017
0.050996 0.083780 0.407546
0.122625 0.097665 0.379469
0.045154 0.073054 0.370770
0.009093 0.079572 0.336018
0.201898 0.081409 0.085300
0.269402 0.034611 0.007817
0.228346 0.087511 0.070158
0.271153 0.080485 0.009726
0.200032 0.024273 0.099919
0.262104 0.099534 0.081215
0.228016 0.053904 0.014125
0.277321 0.067213 0.096435
0.199993 0.011238 0.099961
0.270973 0.034595 0.098259
0.201541 0.064732 0.040703
0.271767 0.083357 0.093234
0.218517 0.003850 0.131053
0.285072 0.026606 0.133279
0.209355 0.077037 0.140784
0.276619 0.071882 0.131365
0.204262 0.090577 0.151755
0.261398 0.014035 0.141859
0.185226 0.068074 0.165793
0.255186 0.059510 0.141663
0.166644 0.018296 0.230085
0.238510 0.012734 0.172722
0.141591 0.057604 0.235192
0.236165 0.071086 0.173648
0.183670 0.045113 0.317985
0.266919 0.050694 0.312047
0.171837 0.082157 0.329762
0.246008 0.088866 0.313322
0.147682 0.040802 0.430949
0.230440 0.031815 0.396665
0.156773 0.094284 0.421951
0.050634 0.089543 0.481942
0.176242 0.087693 0.069489
0.234202 0.072098 0.100082
0.165557 0.048370 0.054632
0.234642 0.011300 0.097267
0.162543 0.073903 0.092336
0.241539 0.079022 0.049017
0.172529 0.037946 0.067220
0.234094 0.038214 0.030722
0.165039 0.099206 0.100577
0.223803 0.100000 0.062510
0.167869 0.054199 0.098529
0.213109 0.055384 0.066796
0.164132 0.079513 0.037662
0.236866 0.064239 0.065248
0.200040 0.064237 0.112909
0.217223 0.024417 0.045050
0.164850 0.072951 0.137307
0.231947 0.083371 0.126477
0.158299 0.025337 0.154865
0.230630 0.033658 0.120566
0.174175 0.088437 0.200296
0.200074 0.085662 0.199998
0.171073 0.031660 0.200373
0.181434 0.010049 0.162097
0.181933 0.022294 0.261998
0.212154 0.098848 0.281702
0.166555 0.058931 0.276658
0.192146 0.074215 0.290670
0.135392 0.014148 0.345598
0.206299 0.005360 0.327498
0.127163 0.045335 0.361156
0.201339 0.078615 0.360766
0.205441 0.004036 0.044934
0.269640 0.097128 0.056440
0.200831 0.033433 0.100037
0.273804 0.060329 0.030976
0.163935 0.099765 0.093188
0.262344 0.094925 0.119396
0.200087 0.072357 0.100024
0.256584 0.040818 0.072805
0.181472 0.017649 0.041981
0.250357 0.023333 0.051163
0.200059 0.057603 0.099970
0.262724 0.054568 0.052801
0.203578 0.010473 0.149351
0.239065 0.019009 0.081646
0.206501 0.052220 0.150756
0.236436 0.059688 0.126629
0.172226 0.094458 0.163774
0.246817 0.093844 0.137722
0.181658 0.047034 0.164211
0.230227 0.050986 0.162311
0.142089 0.099041 0.228162
0.194579 0.007680 0.227302
0.175219 0.053789 0.204493
0.200016 0.052118 0.199978
0.166877 0.018504 0.337263
0.238083 0.026271 0.298142
0.146304 0.071461 0.302916
0.201361 0.073623 0.300043
0.151523 0.026279 0.389984
0.195543 0.026991 0.368561
0.181849 0.061151 0.400169
0.243151 0.067263 0.366499
0.204180 0.080563 0.035011
0.243019 0.086815 0.096565
0.201422 0.035071 0.080528
0.246276 0.043270 0.099073
0.199990 0.088494 0.100034
0.246398 0.089333 0.031379
0.164204 0.039504 0.094738
0.239552 0.024361 0.129878
0.203872 0.091363 0.014142
0.200055 0.099074 0.100023
0.204720 0.043817 0.055685
0.200054 0.043348 0.099907
0.200034 0.095377 0.099981
0.238095 0.005428 0.010537
0.180779 0.041062 0.013302
0.246162 0.061815 0.094757
0.168404 0.080570 0.165685
0.228619 0.089283 0.167996
0.166895 0.039686 0.159826
0.223501 0.029081 0.165587
0.114576 0.088751 0.200008
0.200032 0.070271 0.192514
0.129645 0.020255 0.217669
0.199987 0.034573 0.192686
0.149562 0.093914 0.301371
0.192082 0.008550 0.299991
0.158639 0.032449 0.292963
0.202083 0.037870 0.290455
0.164316 0.092585 0.373225
0.239939 0.011870 0.354142
0.164096 0.054999 0.357971
0.221753 0.049686 0.332325
0.359151 0.045577 0.099797
0.475963 0.016200 0.008091
0.335465 0.083771 0.098385
0.451996 0.083457 0.023855
0.359691 0.025929 0.024167
0.466576 0.034222 0.090070
0.334687 0.088636 0.055961
0.458391 0.086432 0.084780
0.340575 0.044776 0.050285
0.481058 0.051914 0.037584
0.337673 0.099434 0.037606
0.468507 0.014420 0.056874
0.344286 0.050862 0.132035
0.487274 0.064759 0.105227
0.361673 0.084120 0.127682
0.435443 0.009682 0.114628
0.336405 0.041495 0.174685
0.454989 0.038438 0.136963
0.349539 0.077629 0.166702
0.499895 0.089190 0.051601
0.336533 0.045872 0.245314
0.436978 0.015984 0.198989
0.339147 0.096620 0.239756
0.465908 0.093044 0.135284
0.230366 0.100000 0.214056
0.271119 0.032487 0.224588
0.220889 0.075856 0.216928
0.289986 0.078398 0.205532
0.232103 0.020321 0.256386
0.272607 0.029113 0.270343
0.239137 0.066648 0.277524
0.279123 0.082880 0.278637
0.275191 0.018296 0.036423
0.346123 0.095615 0.091670
0.298721 0.044450 0.099993
0.404586 0.060378 0.013287
0.274079 0.002076 0.100119
0.372232 0.015045 0.066907
0.300057 0.061424 0.100007
0.399787 0.039214 0.055247
0.299943 0.009926 0.100004
0.374330 0.093209 0.060079
0.283846 0.074035 0.063575
0.380709 0.057340 0.054612
0.299973 0.003666 0.116077
0.386390 0.013027 0.099827
0.301585 0.079793 0.055870
0.396866 0.038228 0.096924
0.300075 0.014957 0.162788
0.369280 0.017682 0.122593
0.299122 0.085760 0.136029
0.389604 0.057535 0.126633
0.300031 0.008421 0.199991
0.352917 0.005107 0.196515
0.300029 0.079099 0.190574
0.388431 0.080926 0.193455
0.175828 0.082746 0.225870
0.267767 0.077092 0.167597
0.193074 0.054455 0.226615
0.276121 0.046561 0.133531
0.169206 0.078814 0.248640
0.260679 0.066865 0.210491
0.162489 0.040107 0.245741
0.234808 0.028698 0.214090
0.333862 0.024746 0.090088
0.394199 0.021974 0.022498
0.331376 0.067434 0.064172
0.438641 0.057137 0.096242
0.326199 0.015349 0.100619
0.426500 0.014932 0.069298
0.323860 0.060773 0.091478
0.403595 0.079994 0.090100
0.347174 0.028536 0.073144
0.436152 0.027222 0.025906
0.324927 0.057330 0.020908
0.440065 0.055689 0.055951
0.329716 0.024630 0.129240
0.414613 0.045581 0.097940
0.317735 0.067815 0.117815
0.428387 0.071435 0.130539
0.362970 0.017720 0.156964
0.409437 0.025895 0.140468
0.311170 0.066166 0.157843
0.419146 0.060613 0.169310
0.317392 0.027775 0.210284
0.396834 0.022447 0.183547
0.331141 0.072616 0.207030
0.463922 0.065604 0.171464
0.200029 0.098514 0.193863
0.277005 0.094225 0.163133
0.235629 0.049729 0.201680
0.274573 0.047514 0.174487
0.171670 0.095100 0.264799
0.297041 0.003132 0.243542
0.204144 0.062175 0.255274
0.294148 0.059364 0.242956
0.299969 0.089621 0.099954
0.416941 0.096484 0.099304
0.293834 0.033497 0.076288
0.360605 0.061102 0.091646
0.307287 0.081886 0.015477
0.401305 0.094509 0.037823
0.315440 0.023879 0.040859
0.364364 0.068309 0.032193
0.306270 0.001608 0.076472
0.420737 0.080731 0.054080
0.299833 0.041125 0.054416
0.374848 0.074133 0.086290
0.294542 0.000882 0.035226
0.399497 0.088953 0.100008
0.300047 0.044544 0.099955
0.366940 0.088928 0.007502
0.334214 0.095248 0.133321
0.393761 0.090971 0.147880
0.309504 0.041555 0.147246
0.376365 0.053792 0.160301
0.323851 0.099703 0.167719
0.383599 0.012190 0.228353
0.299983 0.047323 0.199956
0.364592 0.048671 0.206276
0.248271 0.092096 0.195989
0.273510 0.008420 0.201823
0.199990 0.017655 0.199959
0.263974 0.031423 0.177065
0.212653 0.088296 0.249044
0.256331 0.092410 0.241488
0.209242 0.036335 0.241610
0.246919 0.057454 0.245299

CELL_TYPES 512
1
1
1
1
1
1
1
1
1
1
1
1
1
1
1
1
1
1
1
1
1
1
1
1
1
1
1
1
1
1
1
1
1
1
1
1
1
1
1
1
1
1
1
1
1
1
1
1
1
1
1
1
1
1
1
1
1
1
1
1
1
1
1
1
1
1
1
1
1
1
1
1
1
1
1
1
1
1
1
1
1
1
1
1
1
1
1
1
1
1
1
1
1
1
1
1
1
1
1
1
1
1
1
1
1
1
1
1
1
1
1
1
1
1
1
1
1
1
1
1
1
1
1
1
1
1
1
1
1
1
1
1
1
1
1
1
1
1
1
1
1
1
1
1
1
1
1
1
1
1
1
1
1
1
1
1
1
1
1
1
1
1
1
1
1
1
1
1
1
1
1
1
1
1
1
1
1
1
1
1
1
1
1
1
1
1
1
1
1
1
1
1
1
1
1
1
1
1
1
1
1
1
1
1
1
1
1
1
1
1
1
1
1
1
1
1
1
1
1
1
1
1
1
1
1
1
1
1
1
1
1
1
1
1
1
1
1
1
1
1
1
1
1
1
1
1
1
1
1
1
1
1
1
1
1
1
1
1
1
1
1
1
1
1
1
1
1
1
1
1
1
1
1
1
1
1
1
1
1
1
1
1
1
1
1
1
1
1
1
1
1
1
1
1
1
1
1
1
1
1
1
1
1
1
1
1
1
1
1
1
1
1
1
1
1
1
1
1
1
1
1
1
1
1
1
1
1
1
1
1
1
1
1
1
1
1
1
1
1
1
1
1
1
1
1
1
1
1
1
1
1
1
1
1
1
1
1
1
1
1
1
1
1
1
1
1
1
1
1
1
1
1
1
1
1
1
1
1
1
1
1
1
1
1
1
1
1
1
1
1
1
1
1
1
1
1
1
1
1
1
1
1
1
1
1
1
1
1
1
1
1
1
1
1
1
1
1
1
1
1
1
1
1
1
1
1
1
1
1
1
1
1
1
1
1
1
1
1
1
1
1
1
1
1
1
1
1
1
1
1
1
1
1
1
1
1
1
1
1
1
1
1
1
1
1
1
1
1
1
1
1
1
1
1
1
1
1
1
1
1
1
1
1
1
1
1
1
1
1
1
1
1
1
1
1
1
1
1
1
1
1
1
1
1
1
1
1
1
1
1
1
1

POINT_DATA 512
SCALARS radius float
LOOKUP_TABLE default
0.5
0.5
0.5
0.5
0.5
0.5
0.5
0.5
0.5
0.5
0.5
0.5
0.5
0.5
0.5
0.5
0.5
0.5
0.5
0.5
0.5
0.5
0.5
0.5
0.5
0.5
0.5
0.5
0.5
0.5
0.5
0.5
0.5
0.5
0.5
0.5
0.5
0.5
0.5
0.5
0.5
0.5
0.5
0.5
0.5
0.5
0.5
0.5
0.5
0.5
0.5
0.5
0.5
0.5
0.5
0.5
0.5
0.5
0.5
0.5
0.5
0.5
0.5
0.5
0.5
0.5
0.5
0.5
0.5
0.5
0.5
0.5
0.5
0.5
0.5
0.5
0.5
0.5
0.5
0.5
0.5
0.5
0.5
0.5
0.5
0.5
0.5
0.5
0.5
0.5
0.5
0.5
0.5
0.5
0.5
0.5
0.5
0.5
0.5
0.5
0.5
0.5
0.5
0.5
0.5
0.5
0.5
0.5
0.5
0.5
0.5
0.5
0.5
0.5
0.5
0.5
0.5
0.5
0.5
0.5
0.5
0.5
0.5
0.5
0.5
0.5
0.5
0.5
0.5
0.5
0.5
0.5
0.5
0.5
0.5
0.5
0.5
0.5
0.5
0.5
0.5
0.5
0.5
0.5
0.5
0.5
0.5
0.5
0.5
0.5
0.5
0.5
0.5
0.5
0.5
0.5
0.5
0.5
0.5
0.5
0.5
0.5
0.5
0.5
0.5
0.5
0.5
0.5
0.5
0.5
0.5
0.5
0.5
0.5
0.5
0.5
0.5
0.5
0.5
0.5
0.5
0.5
0.5
0.5
0.5
0.5
0.5
0.5
0.5
0.5
0.5
0.5
0.5
0.5
0.5
0.5
0.5
0.5
0.5
0.5
0.5
0.5
0.5
0.5
0.5
0.5
0.5
0.5
0.5
0.5
0.5
0.5
0.5
0.5
0.5
0.5
0.5
0.5
0.5
0.5
0.5
0.5
0.5
0.5
0.5
0.5
0.5
0.5
0.5
0.5
0.5
0.5
0.5
0.5
0.5
0.5
0.5
0.5
0.5
0.5
0.5
0.5
0.5
0.5
0.5
0.5
0.5
0.5
0.5
0.5
0.5
0.5
0.5
0.5
0.5
0.5
0.5
0.5
0.5
0.5
0.5
0.5
0.5
0.5
0.5
0.5
0.5
0.5
0.5
0.5
0.5
0.5
0.5
0.5
0.5
0.5
0.5
0.5
0.5
0.5
0.5
0.5
0.5
0.5
0.5
0.5
0.5
0.5
0.5
0.5
0.5
0.5
0.5
0.5
0.5
0.5
0.5
0.5
0.5
0.5
0.5
0.5
0.5
0.5
0.5
0.5
0.5
0.5
0.5
0.5
0.5
0.5
0.5
0.5
0.5
0.5
0.5
0.5
0.5
0.5
0.5
0.5
0.5
0.5
0.5
0.5
0.5
0.5
0.5
0.5
0.5
0.5
0.5
0.5
0.5
0.5
0.5
0.5
0.5
0.5
0.5
0.5
0.5
0.5
0.5
0.5
0.5
0.5
0.5
0.5
0.5
0.5
0.5
0.5
0.5
0.5
0.5
0.5
0.5
0.5
0.5
0.5
0.5
0.5
0.5
0.5
0.5
0.5
0.5
0.5
0.5
0.5
0.5
0.5
0.5
0.5
0.5
0.5
0.5
0.5
0.5
0.5
0.5
0.5
0.5
0.5
0.5
0.5
0.5
0.5
0.5
0.5
0.5
0.5
0.5
0.5
0.5
0.5
0.5
0.5
0.5
0.5
0.5
0.5
0.5
0.5
0.5
0.5
0.5
0.5
0.5
0.5
0.5
0.5
0.5
0.5
0.5
0.5
0.5
0.5
0.5
0.5
0.5
0.5
0.5
0.5
0.5
0.5
0.5
0.5
0.5
0.5
0.5
0.5
0.5
0.5
0.5
0.5
0.5
0.5
0.5
0.5
0.5
0.5
0.5
0.5
0.5
0.5
0.5
0.5
0.5
0.5
0.5
0.5
0.5
0.5
0.5
0.5
0.5
0.5
0.5
0.5
0.5
0.5
0.5
0.5
0.5
0.5
0.5
0.5
0.5
0.5
0.5
0.5
0.5
0.5
0.5
0.5
0.5
0.5
0.5
0.5
0.5
0.5
0.5
0.5
0.5
0.5
0.5
0.5
0.5
0.5
0.5
0.5
0.5
0.5
0.5
0.5
0.5
0.5
0.5
0.5
0.5
0.5
0.5
0.5
0.5
0.5
0.5
0.5
0.5
0.5
