# vtk DataFile Version 2.0
Title Data
ASCII
DATASET UNSTRUCTURED_GRID
POINTS 384 float
0.010145 0.470384 0.010145
0.061605 0.468223 0.011052
0.032804 0.499563 0.032804
0.086466 0.499931 0.029726
0.011052 0.468223 0.061605
0.061211 0.473088 0.061211
0.029726 0.499931 0.086466
0.086323 0.499722 0.086323
0.006353 0.462735 0.110433
0.061334 0.462668 0.110031
0.033104 0.491982 0.132718
0.092121 0.494634 0.131927
0.006630 0.464190 0.159781
0.060365 0.462347 0.159976
0.027885 0.492289 0.190009
0.095645 0.499100 0.186622
0.006880 0.452067 0.207594
0.061173 0.450272 0.206466
0.032283 0.481209 0.236677
0.086359 0.477453 0.230287
0.004433 0.450673 0.257737
0.060202 0.449743 0.257518
0.025487 0.481453 0.287149
0.091121 0.488681 0.296952
0.007906 0.443400 0.307702
0.064379 0.447886 0.305034
0.035103 0.472418 0.337017
0.088396 0.468318 0.340448
0.012608 0.445373 0.367118
0.063224 0.442445 0.365445
0.033549 0.493534 0.406605
0.087700 0.496981 0.410138
0.017577 0.549621 0.017577
0.067479 0.540859 0.017204
0.017737 0.644097 0.017736
0.067143 0.643878 0.017242
0.017204 0.540859 0.067479
0.066018 0.530596 0.066018
0.017243 0.643878 0.067142
0.066592 0.643639 0.066591
0.013960 0.520109 0.112092
0.062982 0.510346 0.108680
0.018682 0.637378 0.115486
0.068106 0.636863 0.114812
0.009260 0.510986 0.161636
0.059133 0.499681 0.162429
0.017173 0.638393 0.164779
0.066501 0.637530 0.164096
0.001986 0.499856 0.208443
0.059564 0.499712 0.205561
0.020575 0.619876 0.210265
0.070120 0.618924 0.209609
0.096019 0.499793 0.261661
0.058194 0.499627 0.262864
0.018072 0.616877 0.259224
0.067538 0.614718 0.258660
0.100012 0.499822 0.324806
0.055453 0.499591 0.311898
0.022994 0.591309 0.299965
0.072922 0.590256 0.299967
0.005702 0.499645 0.365115
0.062729 0.499490 0.367398
0.022059 0.578352 0.351409
0.071719 0.576074 0.350604
0.021693 0.691259 0.021692
0.071571 0.690681 0.022124
0.013608 0.734435 0.013606
0.062115 0.732496 0.012061
0.022124 0.690682 0.071571
0.072303 0.689937 0.072302
0.012063 0.732496 0.062112
0.060217 0.729474 0.060214
0.022374 0.684932 0.120447
0.072059 0.684146 0.121169
0.015020 0.728003 0.109144
0.063827 0.725732 0.106881
0.023650 0.685849 0.169674
0.073588 0.684181 0.170205
0.009942 0.726438 0.156679
0.058095 0.721387 0.153737
0.022543 0.668659 0.214503
0.072171 0.667636 0.215005
0.018662 0.712976 0.202041
0.067931 0.711014 0.199979
0.025293 0.665436 0.262539
0.074976 0.663039 0.263320
0.011253 0.707636 0.250935
0.059644 0.701620 0.247649
0.022743 0.638876 0.302697
0.072206 0.636787 0.302690
0.022960 0.699548 0.298953
0.072347 0.699461 0.298320
0.022289 0.627052 0.353919
0.071725 0.624849 0.353307
0.019917 0.689669 0.346372
0.069420 0.688602 0.345618
0.110433 0.462735 0.006353
0.159781 0.464190 0.006630
0.132718 0.491982 0.033104
0.190008 0.492291 0.027883
0.110030 0.462668 0.061334
0.159975 0.462347 0.060365
0.131927 0.494634 0.092121
0.186622 0.499100 0.095646
0.109665 0.455597 0.109665
0.159391 0.455153 0.108343
0.136308 0.485637 0.136307
0.187352 0.481493 0.136568
0.108343 0.455152 0.159390
0.158908 0.453019 0.158907
0.136566 0.481495 0.187351
0.196593 0.498396 0.196592
0.112136 0.446143 0.207122
0.162297 0.447433 0.205764
0.138190 0.474307 0.234889
0.187030 0.473462 0.235845
0.108150 0.446243 0.258239
0.162036 0.441075 0.257177
0.139001 0.468941 0.283798
0.199620 0.498375 0.298016
0.113264 0.439896 0.308937
0.167093 0.443865 0.308444
0.137500 0.472229 0.337908
0.189003 0.474215 0.339851
0.115720 0.443751 0.369762
0.164637 0.442813 0.365788
0.137414 0.491209 0.413006
0.189046 0.496931 0.410917
0.112093 0.520110 0.013960
0.161636 0.510986 0.009260
0.115488 0.637380 0.018682
0.164780 0.638395 0.017172
0.108682 0.510347 0.062982
0.162429 0.499681 0.059133
0.114814 0.636865 0.068105
0.164099 0.637531 0.066501
0.110238 0.505288 0.110238
0.161132 0.499975 0.105157
0.116617 0.630828 0.116617
0.165874 0.631364 0.114866
0.105157 0.499975 0.161133
0.161796 0.499834 0.161796
0.114867 0.631364 0.165877
0.164061 0.630965 0.164066
0.106672 0.499900 0.204687
0.158549 0.499745 0.209429
0.119071 0.615356 0.212209
0.168718 0.614802 0.210342
0.121531 0.499657 0.252197
0.166176 0.499588 0.264359
0.116530 0.612900 0.261848
0.165970 0.610311 0.259543
0.122568 0.499972 0.299878
0.161885 0.499590 0.312330
0.121782 0.588880 0.300425
0.171650 0.587513 0.299956
0.112210 0.499999 0.371412
0.161508 0.499751 0.370517
0.121008 0.577477 0.354037
0.170222 0.573826 0.352030
0.120448 0.684933 0.022374
0.169674 0.685850 0.023650
0.109148 0.728006 0.015018
0.156684 0.726440 0.009940
0.121169 0.684148 0.072059
0.170204 0.684184 0.073587
0.106886 0.725734 0.063824
0.153743 0.721391 0.058093
0.120830 0.678974 0.120830
0.169886 0.679302 0.122041
0.111412 0.722501 0.111408
0.159322 0.720297 0.105409
0.122050 0.679302 0.169888
0.170942 0.677703 0.170826
0.105412 0.720297 0.159318
0.152438 0.712874 0.152438
0.121054 0.664319 0.215354
0.170245 0.663932 0.216017
0.116259 0.709589 0.204994
0.164888 0.707376 0.200020
0.123477 0.662304 0.263562
0.171968 0.659458 0.264234
0.107661 0.704846 0.253223
0.155404 0.699782 0.247263
0.121297 0.637384 0.304127
0.170327 0.634939 0.304310
0.121153 0.698369 0.299870
0.170444 0.698885 0.297885
0.120647 0.626796 0.355370
0.169482 0.623260 0.353813
0.118416 0.690351 0.347796
0.167326 0.688333 0.345387
0.207592 0.452065 0.006878
0.257740 0.450673 0.004432
0.236673 0.481199 0.032276
0.287157 0.481458 0.025492
0.206465 0.450266 0.061174
0.257517 0.449747 0.060202
0.230292 0.477450 0.086357
0.296553 0.488411 0.091010
0.207123 0.446143 0.112136
0.258238 0.446241 0.108150
0.234891 0.474303 0.138196
0.283792 0.468955 0.139002
0.205765 0.447429 0.162297
0.257178 0.441074 0.162037
0.235848 0.473464 0.187026
0.298227 0.498468 0.200119
0.210204 0.440921 0.210204
0.262675 0.441294 0.208781
0.236859 0.469323 0.236856
0.285523 0.469027 0.237701
0.208781 0.441293 0.262673
0.262289 0.435987 0.262283
0.237706 0.469021 0.285511
0.299761 0.493795 0.299857
0.214279 0.438956 0.313250
0.267760 0.443631 0.311670
0.236363 0.473704 0.340075
0.288361 0.475082 0.342539
0.213701 0.444907 0.370746
0.263168 0.442923 0.367701
0.237709 0.488011 0.415132
0.291883 0.495050 0.410509
0.208446 0.499845 0.001985
0.261630 0.499814 0.096045
0.210272 0.619890 0.020573
0.259233 0.616895 0.018070
0.205561 0.499709 0.059563
0.262814 0.499677 0.058156
0.209627 0.618938 0.070116
0.258683 0.614722 0.067533
0.204679 0.499962 0.106667
0.252166 0.499698 0.121549
0.212210 0.615316 0.119071
0.261837 0.612844 0.116526
0.209432 0.499802 0.158550
0.264377 0.499964 0.166179
0.210329 0.614757 0.168718
0.259459 0.610300 0.165951
0.206350 0.499876 0.206352
0.256223 0.499912 0.214509
0.214632 0.598604 0.214624
0.262986 0.598735 0.211011
0.214517 0.499917 0.256217
0.264252 0.499897 0.264223
0.211023 0.598731 0.262979
0.259368 0.596802 0.259359
0.210553 0.499812 0.306058
0.258068 0.499946 0.311978
0.220895 0.579556 0.302636
0.270713 0.577659 0.300717
0.211190 0.499784 0.374836
0.260524 0.499634 0.373005
0.219233 0.569999 0.354979
0.268441 0.563211 0.351279
0.214505 0.668671 0.022542
0.262534 0.665451 0.025295
0.202049 0.712985 0.018655
0.250943 0.707647 0.011245
0.215001 0.667651 0.072169
0.263294 0.663037 0.074978
0.199988 0.711022 0.067921
0.247658 0.701623 0.059634
0.215362 0.664305 0.121057
0.263573 0.662277 0.123479
0.205006 0.709569 0.116248
0.253232 0.704819 0.107648
0.216053 0.663862 0.170252
0.264253 0.659431 0.171967
0.199988 0.707284 0.164884
0.247289 0.699711 0.155379
0.216295 0.648769 0.216295
0.265059 0.647641 0.217501
0.211355 0.699551 0.211332
0.259128 0.698858 0.202683
0.217500 0.647637 0.265058
0.265314 0.644291 0.265314
0.202699 0.698846 0.259106
0.251842 0.694106 0.251827
0.218730 0.628375 0.308916
0.268239 0.625920 0.309123
0.217111 0.692588 0.302766
0.265820 0.692461 0.299886
0.217910 0.619387 0.359159
0.266909 0.612792 0.357301
0.215591 0.687994 0.353369
0.264635 0.684725 0.347827
0.307703 0.443401 0.007906
0.367117 0.445374 0.012609
0.337012 0.472424 0.035103
0.406603 0.493535 0.033551
0.305024 0.447872 0.064367
0.365451 0.442445 0.063217
0.340394 0.468264 0.088385
0.410137 0.496981 0.087700
0.308924 0.439887 0.113271
0.369765 0.443751 0.115719
0.337905 0.472204 0.137524
0.413018 0.491206 0.137426
0.308443 0.443868 0.167092
0.365796 0.442804 0.164640
0.339867 0.474212 0.188997
0.410916 0.496931 0.189042
0.313254 0.438959 0.214279
0.370754 0.444898 0.213698
0.340101 0.473698 0.236359
0.415138 0.488008 0.237702
0.311674 0.443635 0.267760
0.367707 0.442914 0.263169
0.342570 0.475070 0.288356
0.410519 0.495049 0.291892
0.316755 0.443405 0.316754
0.370921 0.447220 0.316619
0.339398 0.481325 0.339398
0.411137 0.485110 0.342770
0.316613 0.447225 0.370916
0.366608 0.449631 0.366608
0.342766 0.485112 0.411132
0.400050 0.494167 0.400050
0.325218 0.499835 0.100180
0.365115 0.499646 0.005702
0.299960 0.591312 0.022987
0.351413 0.578382 0.022058
0.311879 0.499564 0.055529
0.367390 0.499479 0.062742
0.299947 0.590299 0.072912
0.350608 0.576106 0.071716
0.300002 0.499869 0.122393
0.371520 0.499999 0.112221
0.300426 0.588870 0.121791
0.354037 0.577456 0.121003
0.312395 0.499652 0.161722
0.370517 0.499815 0.161507
0.299950 0.587500 0.171669
0.352028 0.573803 0.170215
0.305814 0.499796 0.210191
0.374848 0.499859 0.211184
0.302640 0.579564 0.220884
0.354981 0.570014 0.219224
0.311954 0.499652 0.257994
0.373044 0.499954 0.260528
0.300722 0.577662 0.270705
0.351280 0.563225 0.268431
0.307487 0.499932 0.307464
0.377378 0.499889 0.310513
0.315864 0.561132 0.315863
0.366954 0.551685 0.315325
0.310502 0.499883 0.377375
0.372385 0.497518 0.372382
0.315327 0.551682 0.366953
0.364963 0.538553 0.364961
0.302701 0.638947 0.022737
0.353920 0.627144 0.022283
0.298952 0.699547 0.022954
0.346374 0.689718 0.019913
0.302699 0.636897 0.072201
0.353307 0.624947 0.071718
0.298303 0.699408 0.072331
0.345614 0.688660 0.069415
0.304137 0.637375 0.121295
0.355376 0.626763 0.120645
0.299866 0.698328 0.121121
0.347800 0.690324 0.118417
0.304285 0.634830 0.170319
0.353817 0.623222 0.169475
0.297881 0.698820 0.170397
0.345390 0.688300 0.167324
0.308927 0.628388 0.218735
0.359162 0.619408 0.217913
0.302778 0.692590 0.217133
0.353372 0.688003 0.215595
0.309132 0.625931 0.268236
0.357305 0.612810 0.266904
0.299859 0.692484 0.265844
0.347828 0.684734 0.264634
0.315510 0.611676 0.315496
0.366023 0.603806 0.314936
0.314040 0.685547 0.314032
0.364402 0.682751 0.311554
0.314952 0.603802 0.366022
0.364814 0.596124 0.364813
0.311564 0.682750 0.364402
0.361274 0.676806 0.361265

CELL_TYPES 384
1
1
1
1
1
1
1
1
1
1
1
1
1
1
1
1
1
1
1
1
1
1
1
1
1
1
1
1
1
1
1
1
1
1
1
1
1
1
1
1
1
1
1
1
1
1
1
1
1
1
1
1
1
1
1
1
1
1
1
1
1
1
1
1
1
1
1
1
1
1
1
1
1
1
1
1
1
1
1
1
1
1
1
1
1
1
1
1
1
1
1
1
1
1
1
1
1
1
1
1
1
1
1
1
1
1
1
1
1
1
1
1
1
1
1
1
1
1
1
1
1
1
1
1
1
1
1
1
1
1
1
1
1
1
1
1
1
1
1
1
1
1
1
1
1
1
1
1
1
1
1
1
1
1
1
1
1
1
1
1
1
1
1
1
1
1
1
1
1
1
1
1
1
1
1
1
1
1
1
1
1
1
1
1
1
1
1
1
1
1
1
1
1
1
1
1
1
1
1
1
1
1
1
1
1
1
1
1
1
1
1
1
1
1
1
1
1
1
1
1
1
1
1
1
1
1
1
1
1
1
1
1
1
1
1
1
1
1
1
1
1
1
1
1
1
1
1
1
1
1
1
1
1
1
1
1
1
1
1
1
1
1
1
1
1
1
1
1
1
1
1
1
1
1
1
1
1
1
1
1
1
1
1
1
1
1
1
1
1
1
1
1
1
1
1
1
1
1
1
1
1
1
1
1
1
1
1
1
1
1
1
1
1
1
1
1
1
1
1
1
1
1
1
1
1
1
1
1
1
1
1
1
1
1
1
1
1
1
1
1
1
1
1
1
1
1
1
1
1
1
1
1
1
1
1
1
1
1
1
1
1
1
1
1
1
1
1
1
1
1
1
1
1
1
1
1
1
1
1
1
1
1
1
1

POINT_DATA 384
SCALARS radius float
LOOKUP_TABLE default
0.5
0.5
0.5
0.5
0.5
0.5
0.5
0.5
0.5
0.5
0.5
0.5
0.5
0.5
0.5
0.5
0.5
0.5
0.5
0.5
0.5
0.5
0.5
0.5
0.5
0.5
0.5
0.5
0.5
0.5
0.5
0.5
0.5
0.5
0.5
0.5
0.5
0.5
0.5
0.5
0.5
0.5
0.5
0.5
0.5
0.5
0.5
0.5
0.5
0.5
0.5
0.5
0.5
0.5
0.5
0.5
0.5
0.5
0.5
0.5
0.5
0.5
0.5
0.5
0.5
0.5
0.5
0.5
0.5
0.5
0.5
0.5
0.5
0.5
0.5
0.5
0.5
0.5
0.5
0.5
0.5
0.5
0.5
0.5
0.5
0.5
0.5
0.5
0.5
0.5
0.5
0.5
0.5
0.5
0.5
0.5
0.5
0.5
0.5
0.5
0.5
0.5
0.5
0.5
0.5
0.5
0.5
0.5
0.5
0.5
0.5
0.5
0.5
0.5
0.5
0.5
0.5
0.5
0.5
0.5
0.5
0.5
0.5
0.5
0.5
0.5
0.5
0.5
0.5
0.5
0.5
0.5
0.5
0.5
0.5
0.5
0.5
0.5
0.5
0.5
0.5
0.5
0.5
0.5
0.5
0.5
0.5
0.5
0.5
0.5
0.5
0.5
0.5
0.5
0.5
0.5
0.5
0.5
0.5
0.5
0.5
0.5
0.5
0.5
0.5
0.5
0.5
0.5
0.5
0.5
0.5
0.5
0.5
0.5
0.5
0.5
0.5
0.5
0.5
0.5
0.5
0.5
0.5
0.5
0.5
0.5
0.5
0.5
0.5
0.5
0.5
0.5
0.5
0.5
0.5
0.5
0.5
0.5
0.5
0.5
0.5
0.5
0.5
0.5
0.5
0.5
0.5
0.5
0.5
0.5
0.5
0.5
0.5
0.5
0.5
0.5
0.5
0.5
0.5
0.5
0.5
0.5
0.5
0.5
0.5
0.5
0.5
0.5
0.5
0.5
0.5
0.5
0.5
0.5
0.5
0.5
0.5
0.5
0.5
0.5
0.5
0.5
0.5
0.5
0.5
0.5
0.5
0.5
0.5
0.5
0.5
0.5
0.5
0.5
0.5
0.5
0.5
0.5
0.5
0.5
0.5
0.5
0.5
0.5
0.5
0.5
0.5
0.5
0.5
0.5
0.5
0.5
0.5
0.5
0.5
0.5
0.5
0.5
0.5
0.5
0.5
0.5
0.5
0.5
0.5
0.5
0.5
0.5
0.5
0.5
0.5
0.5
0.5
0.5
0.5
0.5
0.5
0.5
0.5
0.5
0.5
0.5
0.5
0.5
0.5
0.5
0.5
0.5
0.5
0.5
0.5
0.5
0.5
0.5
0.5
0.5
0.5
0.5
0.5
0.5
0.5
0.5
0.5
0.5
0.5
0.5
0.5
0.5
0.5
0.5
0.5
0.5
0.5
0.5
0.5
0.5
0.5
0.5
0.5
0.5
0.5
0.5
0.5
0.5
0.5
0.5
0.5
0.5
0.5
0.5
0.5
0.5
0.5
0.5
0.5
0.5
0.5
0.5
0.5
0.5
0.5
0.5
0.5
0.5
0.5
0.5
0.5
0.5
0.5
0.5
0.5
0.5
0.5
0.5
0.5
0.5
0.5
0.5
0.5
0.5
0.5
0.5
0.5
0.5
