# vtk DataFile Version 2.0
Title Data
ASCII
DATASET UNSTRUCTURED_GRID
POINTS 384 float
0.107403 0.261915 0.026163
0.094252 0.257752 0.073089
0.123710 0.272045 0.099924
0.100330 0.299930 0.099870
0.062909 0.297466 0.097491
0.023865 0.251437 0.026117
0.100149 0.324146 0.097083
0.002776 0.298592 0.120041
0.143143 0.240020 0.127300
0.067703 0.239717 0.040803
0.053631 0.264607 0.132436
0.021157 0.244751 0.157255
0.051252 0.250221 0.194880
0.100367 0.255480 0.200591
0.072362 0.289116 0.200618
0.102910 0.299731 0.171054
0.048577 0.252292 0.244093
0.099250 0.251971 0.244661
0.142701 0.299837 0.235284
0.120348 0.299751 0.207726
0.012585 0.256111 0.278632
0.104271 0.263494 0.299964
0.059006 0.250568 0.294008
0.024962 0.256348 0.330841
0.118790 0.265091 0.343064
0.104450 0.299834 0.308645
0.097948 0.263078 0.384017
0.048844 0.264891 0.373616
0.122653 0.263908 0.421068
0.006340 0.261720 0.402685
0.098621 0.256253 0.469947
0.054576 0.297745 0.464162
0.095601 0.248380 0.118534
0.092395 0.299820 0.096063
0.012142 0.346425 0.012148
0.031536 0.299943 0.087078
0.000440 0.299385 0.056815
0.096363 0.299711 0.003391
0.102177 0.298841 0.052986
0.026273 0.299639 0.013205
0.132699 0.299557 0.137912
0.040357 0.298988 0.165734
0.015371 0.345786 0.109643
0.052164 0.299868 0.117644
0.078949 0.299724 0.153373
0.111949 0.255260 0.160141
0.099933 0.299694 0.191181
0.095922 0.289739 0.134111
0.023817 0.286617 0.213811
0.099982 0.325397 0.200027
0.004467 0.327963 0.207376
0.051227 0.316275 0.200145
0.021504 0.299595 0.260429
0.099557 0.299743 0.273232
0.060462 0.299763 0.243669
0.099195 0.299670 0.238373
0.089274 0.299492 0.353154
0.053143 0.300000 0.290911
0.116818 0.304492 0.273823
0.009238 0.299789 0.306729
0.070884 0.264247 0.429806
0.030558 0.299740 0.421045
0.069612 0.299975 0.396639
0.008417 0.299217 0.368508
0.015293 0.465605 0.015319
0.066216 0.404800 0.012364
0.004896 0.551170 0.004889
0.053733 0.496229 0.000073
0.012270 0.405654 0.066274
0.064792 0.327119 0.063566
0.098809 0.498023 0.043487
0.051549 0.449057 0.051450
0.014344 0.478517 0.112927
0.064626 0.422289 0.112437
0.013029 0.544930 0.099797
0.060396 0.495721 0.100557
0.021814 0.391867 0.160689
0.069510 0.353130 0.158709
0.000775 0.506681 0.148287
0.050310 0.468684 0.147079
0.013122 0.484112 0.202443
0.069418 0.450869 0.200581
0.016147 0.536747 0.194743
0.057359 0.498494 0.187528
0.018072 0.385335 0.245685
0.064419 0.366469 0.239795
0.000047 0.506701 0.241704
0.050048 0.476820 0.239909
0.021205 0.388355 0.295542
0.072972 0.370526 0.292944
0.016494 0.521963 0.287014
0.060273 0.498155 0.283496
0.076102 0.299981 0.305179
0.045248 0.299642 0.339224
0.008624 0.480846 0.300005
0.055540 0.443867 0.300553
0.056849 0.288479 0.047192
0.189759 0.252939 0.050449
0.153183 0.249479 0.013304
0.188513 0.299721 0.101874
0.048594 0.250726 0.086175
0.195935 0.248906 0.099971
0.121915 0.223355 0.051612
0.193959 0.299914 0.005217
0.106206 0.220829 0.099972
0.158718 0.223544 0.082956
0.153661 0.248661 0.173436
0.187160 0.237914 0.146612
0.071327 0.228314 0.155828
0.183472 0.222681 0.200000
0.146137 0.256882 0.217245
0.199979 0.331952 0.187073
0.099613 0.212252 0.209492
0.196970 0.266482 0.201565
0.143342 0.220307 0.248094
0.180797 0.271500 0.243975
0.106990 0.225565 0.283426
0.182394 0.240530 0.278757
0.148830 0.246746 0.311419
0.200811 0.289292 0.300285
0.078423 0.248164 0.338801
0.198357 0.250431 0.347217
0.138300 0.237257 0.374401
0.203839 0.291955 0.400110
0.109636 0.299177 0.456636
0.164726 0.265026 0.401897
0.147782 0.298989 0.489341
0.190990 0.299626 0.470817
0.141761 0.267820 0.055611
0.159385 0.269340 0.094888
0.112713 0.381254 0.016412
0.168144 0.346030 0.101047
0.145812 0.307967 0.099950
0.172651 0.299777 0.049484
0.121437 0.330883 0.045219
0.144721 0.299998 0.011758
0.114766 0.370348 0.105480
0.167999 0.281841 0.139170
0.114235 0.444429 0.115051
0.159833 0.397552 0.116926
0.147846 0.292660 0.183178
0.189923 0.298961 0.171302
0.116765 0.397925 0.160954
0.157879 0.326369 0.157726
0.137573 0.355138 0.201650
0.168171 0.299859 0.201536
0.112706 0.403207 0.210766
0.171458 0.393484 0.206735
0.139749 0.263908 0.266892
0.195022 0.299980 0.290271
0.111798 0.356955 0.250023
0.166831 0.305339 0.260941
0.151201 0.296643 0.298351
0.160296 0.271247 0.351772
0.136932 0.371821 0.290625
0.199950 0.350840 0.298891
0.100139 0.299440 0.409621
0.152395 0.299307 0.439951
0.131884 0.299970 0.378886
0.177756 0.299558 0.375371
0.116283 0.486151 0.008148
0.160697 0.422792 0.021737
0.099907 0.547027 0.012861
0.147472 0.532544 0.001199
0.111303 0.448723 0.065392
0.158925 0.384987 0.068254
0.099055 0.498445 0.076536
0.149774 0.484401 0.049601
0.108049 0.513514 0.104986
0.158539 0.482226 0.107450
0.113495 0.588408 0.100431
0.153145 0.533845 0.091325
0.106572 0.482390 0.159473
0.158810 0.442322 0.158465
0.090805 0.511160 0.151732
0.151278 0.499368 0.152830
0.100045 0.496278 0.205995
0.151859 0.487867 0.199692
0.102143 0.579423 0.197142
0.150795 0.557609 0.197333
0.099532 0.462683 0.253249
0.154376 0.426410 0.247676
0.089345 0.513978 0.246676
0.132777 0.499768 0.241907
0.107279 0.442160 0.299150
0.173666 0.425074 0.294793
0.098704 0.568193 0.295942
0.144360 0.556205 0.276321
0.134998 0.299795 0.330707
0.183045 0.299791 0.330934
0.100084 0.490047 0.303182
0.139018 0.476875 0.283638
0.243731 0.246930 0.049502
0.272887 0.254786 0.011594
0.247709 0.299622 0.132163
0.292948 0.253055 0.057521
0.199865 0.289468 0.084796
0.283466 0.260001 0.105872
0.218353 0.256802 0.009269
0.338364 0.260018 0.025552
0.208195 0.240252 0.096588
0.254838 0.224464 0.096057
0.233601 0.233111 0.140347
0.315212 0.249238 0.168151
0.221182 0.248964 0.187949
0.268408 0.223934 0.182149
0.228011 0.297543 0.174739
0.297409 0.299801 0.200232
0.209930 0.236684 0.238123
0.289787 0.237342 0.221232
0.249674 0.256932 0.239208
0.290740 0.278909 0.240347
0.228451 0.256962 0.281284
0.277417 0.259403 0.280313
0.246898 0.298928 0.297513
0.296496 0.297916 0.299979
0.233217 0.269974 0.328644
0.271907 0.251348 0.328489
0.250042 0.253769 0.371754
0.298155 0.251369 0.372628
0.222728 0.295121 0.442830
0.253281 0.299465 0.432601
0.239257 0.299390 0.484449
0.287059 0.299198 0.476286
0.221517 0.294538 0.045659
0.265970 0.299938 0.045909
0.203874 0.325148 0.015082
0.267705 0.299705 0.096103
0.225766 0.305191 0.100099
0.241296 0.270238 0.087053
0.200018 0.327467 0.065662
0.243310 0.299676 0.002519
0.200093 0.312738 0.139669
0.272117 0.258255 0.149456
0.209661 0.396297 0.115081
0.253822 0.362780 0.113772
0.213493 0.274255 0.134813
0.261888 0.270013 0.197766
0.205743 0.390099 0.165056
0.267628 0.299631 0.165997
0.223701 0.299944 0.217912
0.256734 0.311928 0.200169
0.216057 0.360288 0.212574
0.264602 0.371802 0.200733
0.212307 0.299892 0.255312
0.299976 0.309593 0.260256
0.199389 0.381269 0.256310
0.255289 0.299802 0.253681
0.216518 0.299960 0.358203
0.280515 0.297413 0.339328
0.227506 0.309091 0.311659
0.272550 0.313808 0.299919
0.189690 0.299629 0.420185
0.276674 0.276274 0.437886
0.247182 0.295076 0.396722
0.291197 0.296751 0.386763
0.202289 0.483420 0.014756
0.244616 0.384633 0.019273
0.195072 0.555705 0.016451
0.247479 0.499707 0.100241
0.196590 0.457893 0.065461
0.237099 0.369219 0.067114
0.192040 0.513316 0.063654
0.240210 0.473293 0.047235
0.200156 0.494360 0.099981
0.253862 0.453870 0.099134
0.199036 0.575841 0.102922
0.246257 0.504592 0.080215
0.196235 0.487226 0.151592
0.247315 0.429190 0.152293
0.197144 0.559303 0.151855
0.239536 0.498807 0.145355
0.201779 0.471894 0.198480
0.251875 0.426407 0.201931
0.199954 0.578310 0.200621
0.244629 0.559177 0.192715
0.204335 0.423491 0.249628
0.257280 0.343026 0.260314
0.187839 0.550092 0.245360
0.199985 0.500082 0.203107
0.199495 0.369698 0.345556
0.254750 0.299555 0.359436
0.199861 0.557089 0.293435
0.160489 0.515490 0.299722
0.213120 0.334864 0.393532
0.288487 0.338747 0.395339
0.193269 0.481981 0.295415
0.189903 0.435772 0.366102
0.335190 0.266608 0.128600
0.417019 0.263991 0.100002
0.394366 0.299789 0.103894
0.448675 0.299264 0.093028
0.320528 0.240862 0.101089
0.424006 0.262884 0.007136
0.388324 0.258205 0.069966
0.463575 0.298569 0.044661
0.345405 0.237061 0.066327
0.489281 0.282392 0.088862
0.378332 0.245102 0.119608
0.486176 0.298513 0.137877
0.347122 0.234367 0.201768
0.412773 0.254951 0.168195
0.402011 0.280868 0.216214
0.488810 0.299906 0.197096
0.327753 0.251905 0.241129
0.449392 0.277978 0.218545
0.383461 0.250641 0.265369
0.488014 0.298859 0.244742
0.305494 0.241833 0.301806
0.416514 0.262810 0.293756
0.374278 0.278897 0.299018
0.476157 0.299713 0.292897
0.318993 0.286173 0.315051
0.454433 0.266455 0.323818
0.370835 0.256905 0.365138
0.452891 0.298827 0.357254
0.323036 0.285905 0.447528
0.399864 0.282056 0.407884
0.365113 0.299397 0.438166
0.436168 0.299376 0.400001
0.342661 0.282507 0.073562
0.415643 0.299424 0.062249
0.293764 0.326903 0.099982
0.369268 0.299885 0.047151
0.300031 0.299652 0.071112
0.400121 0.299672 0.016466
0.291252 0.299806 0.002859
0.356030 0.299813 0.104084
0.298466 0.299148 0.135294
0.434450 0.299588 0.132621
0.295596 0.357827 0.140708
0.393610 0.299390 0.148082
0.364706 0.257295 0.164850
0.454324 0.299275 0.171023
0.300106 0.341264 0.196177
0.377944 0.299614 0.187508
0.344612 0.299669 0.191548
0.420991 0.299478 0.186426
0.325377 0.299614 0.225030
0.364022 0.270508 0.226777
0.340889 0.257306 0.282677
0.441935 0.299240 0.258339
0.326375 0.299639 0.283969
0.369798 0.302280 0.299880
0.299773 0.302428 0.344005
0.428602 0.299635 0.301138
0.328858 0.273106 0.352752
0.409436 0.291790 0.350432
0.299925 0.299067 0.413168
0.401852 0.311937 0.438045
0.344176 0.275672 0.402834
0.399871 0.299792 0.406935
0.294574 0.387059 0.020865
0.310354 0.299757 0.101773
0.286744 0.502214 0.014188
0.300001 0.472408 0.007525
0.290678 0.372706 0.070516
0.321295 0.299886 0.036292
0.286971 0.493390 0.060207
0.300702 0.422226 0.053779
0.298939 0.438315 0.109647
0.347918 0.299561 0.147960
0.295739 0.562336 0.099785
0.306594 0.486058 0.099958
0.292204 0.405817 0.168219
0.308997 0.298288 0.174976
0.280990 0.546384 0.146975
0.282297 0.478799 0.138338
0.348833 0.362101 0.199344
0.394455 0.299864 0.208508
0.289203 0.537634 0.199703
0.300045 0.455104 0.200664
0.350853 0.299621 0.256685
0.395717 0.299669 0.258507
0.300228 0.498748 0.179420
0.380841 0.438771 0.196181
0.356670 0.299283 0.338290
0.397858 0.299539 0.328149
0.201672 0.493098 0.392377
0.351305 0.418023 0.351491
0.327117 0.299588 0.382094
0.377061 0.299450 0.378630
0.277141 0.467551 0.392298
0.384746 0.393519 0.386081

CELL_TYPES 384
1
1
1
1
1
1
1
1
1
1
1
1
1
1
1
1
1
1
1
1
1
1
1
1
1
1
1
1
1
1
1
1
1
1
1
1
1
1
1
1
1
1
1
1
1
1
1
1
1
1
1
1
1
1
1
1
1
1
1
1
1
1
1
1
1
1
1
1
1
1
1
1
1
1
1
1
1
1
1
1
1
1
1
1
1
1
1
1
1
1
1
1
1
1
1
1
1
1
1
1
1
1
1
1
1
1
1
1
1
1
1
1
1
1
1
1
1
1
1
1
1
1
1
1
1
1
1
1
1
1
1
1
1
1
1
1
1
1
1
1
1
1
1
1
1
1
1
1
1
1
1
1
1
1
1
1
1
1
1
1
1
1
1
1
1
1
1
1
1
1
1
1
1
1
1
1
1
1
1
1
1
1
1
1
1
1
1
1
1
1
1
1
1
1
1
1
1
1
1
1
1
1
1
1
1
1
1
1
1
1
1
1
1
1
1
1
1
1
1
1
1
1
1
1
1
1
1
1
1
1
1
1
1
1
1
1
1
1
1
1
1
1
1
1
1
1
1
1
1
1
1
1
1
1
1
1
1
1
1
1
1
1
1
1
1
1
1
1
1
1
1
1
1
1
1
1
1
1
1
1
1
1
1
1
1
1
1
1
1
1
1
1
1
1
1
1
1
1
1
1
1
1
1
1
1
1
1
1
1
1
1
1
1
1
1
1
1
1
1
1
1
1
1
1
1
1
1
1
1
1
1
1
1
1
1
1
1
1
1
1
1
1
1
1
1
1
1
1
1
1
1
1
1
1
1
1
1
1
1
1
1
1
1
1
1
1
1
1
1
1
1
1
1
1
1
1
1
1
1
1
1
1
1
1

POINT_DATA 384
SCALARS radius float
LOOKUP_TABLE default
0.5
0.5
0.5
0.5
0.5
0.5
0.5
0.5
0.5
0.5
0.5
0.5
0.5
0.5
0.5
0.5
0.5
0.5
0.5
0.5
0.5
0.5
0.5
0.5
0.5
0.5
0.5
0.5
0.5
0.5
0.5
0.5
0.5
0.5
0.5
0.5
0.5
0.5
0.5
0.5
0.5
0.5
0.5
0.5
0.5
0.5
0.5
0.5
0.5
0.5
0.5
0.5
0.5
0.5
0.5
0.5
0.5
0.5
0.5
0.5
0.5
0.5
0.5
0.5
0.5
0.5
0.5
0.5
0.5
0.5
0.5
0.5
0.5
0.5
0.5
0.5
0.5
0.5
0.5
0.5
0.5
0.5
0.5
0.5
0.5
0.5
0.5
0.5
0.5
0.5
0.5
0.5
0.5
0.5
0.5
0.5
0.5
0.5
0.5
0.5
0.5
0.5
0.5
0.5
0.5
0.5
0.5
0.5
0.5
0.5
0.5
0.5
0.5
0.5
0.5
0.5
0.5
0.5
0.5
0.5
0.5
0.5
0.5
0.5
0.5
0.5
0.5
0.5
0.5
0.5
0.5
0.5
0.5
0.5
0.5
0.5
0.5
0.5
0.5
0.5
0.5
0.5
0.5
0.5
0.5
0.5
0.5
0.5
0.5
0.5
0.5
0.5
0.5
0.5
0.5
0.5
0.5
0.5
0.5
0.5
0.5
0.5
0.5
0.5
0.5
0.5
0.5
0.5
0.5
0.5
0.5
0.5
0.5
0.5
0.5
0.5
0.5
0.5
0.5
0.5
0.5
0.5
0.5
0.5
0.5
0.5
0.5
0.5
0.5
0.5
0.5
0.5
0.5
0.5
0.5
0.5
0.5
0.5
0.5
0.5
0.5
0.5
0.5
0.5
0.5
0.5
0.5
0.5
0.5
0.5
0.5
0.5
0.5
0.5
0.5
0.5
0.5
0.5
0.5
0.5
0.5
0.5
0.5
0.5
0.5
0.5
0.5
0.5
0.5
0.5
0.5
0.5
0.5
0.5
0.5
0.5
0.5
0.5
0.5
0.5
0.5
0.5
0.5
0.5
0.5
0.5
0.5
0.5
0.5
0.5
0.5
0.5
0.5
0.5
0.5
0.5
0.5
0.5
0.5
0.5
0.5
0.5
0.5
0.5
0.5
0.5
0.5
0.5
0.5
0.5
0.5
0.5
0.5
0.5
0.5
0.5
0.5
0.5
0.5
0.5
0.5
0.5
0.5
0.5
0.5
0.5
0.5
0.5
0.5
0.5
0.5
0.5
0.5
0.5
0.5
0.5
0.5
0.5
0.5
0.5
0.5
0.5
0.5
0.5
0.5
0.5
0.5
0.5
0.5
0.5
0.5
0.5
0.5
0.5
0.5
0.5
0.5
0.5
0.5
0.5
0.5
0.5
0.5
0.5
0.5
0.5
0.5
0.5
0.5
0.5
0.5
0.5
0.5
0.5
0.5
0.5
0.5
0.5
0.5
0.5
0.5
0.5
0.5
0.5
0.5
0.5
0.5
0.5
0.5
0.5
0.5
0.5
0.5
0.5
0.5
0.5
0.5
0.5
0.5
0.5
0.5
0.5
0.5
0.5
0.5
0.5
0.5
0.5
0.5
0.5
0.5
0.5
0.5
0.5
0.5
0.5
0.5
0.5
0.5
0.5
0.5
0.5
0.5
0.5
