# vtk DataFile Version 2.0
Title Data
ASCII
DATASET UNSTRUCTURED_GRID
POINTS 360 float
0.557687 0.004651 0.299758
0.607560 0.027031 0.520678
0.130852 0.102810 0.299148
0.202301 0.008048 0.269895
0.709750 0.099293 0.505015
0.754022 0.182602 0.590876
0.236378 0.087379 0.175131
0.281566 0.000278 0.388729
0.299739 0.099871 0.662222
0.654627 0.016064 0.616361
0.060169 0.003257 0.298718
0.526052 0.099984 0.528403
0.281232 0.099823 0.458139
0.284487 0.067048 0.541560
0.490926 0.055448 0.440557
0.602727 0.026312 0.704437
0.570844 0.072037 0.788685
0.700269 0.063722 0.700006
0.241565 0.099154 0.300024
0.358260 0.025067 0.528306
0.197844 0.017460 0.321065
0.263613 0.066313 0.789328
0.074320 0.052079 0.298252
0.299245 0.058406 0.685001
0.361708 0.055353 0.399129
0.372067 0.099164 0.313779
0.300432 0.007063 0.002621
0.468639 0.054769 0.299505
0.369269 0.099876 0.241817
0.475513 0.099716 0.357150
0.169343 0.034747 0.295635
0.599691 0.099723 0.342875
0.284146 0.099729 0.269060
0.614957 0.043880 0.382172
0.547473 0.053946 0.292558
0.262973 0.099816 0.676483
0.316779 0.101484 0.597548
0.608654 0.099996 0.788755
0.541801 0.072713 0.433613
0.337292 0.062347 0.578632
0.691946 0.146537 0.763721
0.778675 0.148971 0.727290
0.268123 0.099767 0.755774
0.404254 0.099930 0.635070
0.156043 0.051454 0.383791
0.301903 0.100012 0.518103
0.572087 0.050443 0.585980
0.294868 0.020469 0.783949
0.412740 0.099854 0.222465
0.522234 0.099974 0.389072
0.283372 0.099178 0.323830
0.277372 0.099858 0.220718
0.327577 0.022568 0.439453
0.607924 0.079182 0.515493
0.215423 0.055056 0.298314
0.570704 0.099950 0.411092
0.612539 0.100492 0.609670
0.199565 0.086878 0.403298
0.187536 0.094982 0.299661
0.170114 0.099783 0.422887
0.482349 0.099968 0.501363
0.466458 0.060593 0.522032
0.718342 0.114155 0.748706
0.527531 0.028127 0.420705
0.260336 0.099687 0.635665
0.684377 0.036020 0.730241
0.536249 0.029841 0.568027
0.299915 0.022529 0.552489
0.171374 0.099999 0.522649
0.479449 0.099897 0.556541
0.099933 0.099916 0.600187
0.077082 0.099362 0.300439
0.031923 0.099930 0.298981
0.299961 0.095740 0.187681
0.028929 0.048198 0.298903
0.152643 0.074267 0.291073
0.374073 0.099671 0.376986
0.099272 0.099989 0.099940
0.239769 0.099801 0.122497
0.288599 0.049736 0.385626
0.380652 0.003059 0.399455
0.240152 0.099780 0.247105
0.758891 0.105306 0.734085
0.534078 0.099888 0.485421
0.202358 0.099869 0.284026
0.414037 0.099752 0.499483
0.128378 0.012127 0.292419
0.509709 0.007713 0.478771
0.252022 0.034333 0.346560
0.185506 0.017819 0.538075
0.090816 0.051232 0.599724
0.107442 0.045715 0.299544
0.101654 0.091280 0.299648
0.221469 0.096907 0.714854
0.482753 0.099921 0.688068
0.171842 0.099785 0.478322
0.429159 0.093165 0.374085
0.663348 0.004266 0.338615
0.405790 0.040673 0.352473
0.478471 0.099917 0.299694
0.289909 0.050911 0.169476
0.485873 0.099809 0.409030
0.562361 0.099964 0.262993
0.639592 0.069182 0.344355
0.459204 0.099827 0.454951
0.566314 0.041748 0.527624
0.293214 0.099642 0.382046
0.604114 0.027510 0.618700
0.299765 0.099725 0.784276
0.531062 0.099999 0.573792
0.158168 0.099969 0.372645
0.647850 0.158951 0.771768
0.569956 0.099980 0.589783
0.585947 0.099938 0.652402
0.298613 0.018561 0.717337
0.579438 0.108100 0.699987
0.399410 0.104092 0.551323
0.362758 0.103183 0.504619
0.430878 0.099673 0.573671
0.643028 0.181373 0.720638
0.300392 0.099919 0.077304
0.300587 0.004123 0.077315
0.769470 0.055156 0.540967
0.452454 0.003611 0.299916
0.758352 0.122527 0.691690
0.795835 0.086471 0.652720
0.648604 0.107935 0.299935
0.550854 0.046263 0.476008
0.693454 0.033306 0.156258
0.780803 0.040673 0.644290
0.626946 0.049349 0.584411
0.651727 0.099985 0.491603
0.678218 0.074839 0.659597
0.637548 0.034578 0.679349
0.539479 0.099903 0.625714
0.753951 0.087535 0.659237
0.714990 0.194424 0.618160
0.637289 0.093427 0.667714
0.714654 0.112018 0.700176
0.468775 0.058414 0.669172
0.685037 0.027073 0.677112
0.230273 0.099875 0.768522
0.481047 0.015667 0.648786
0.299832 0.099881 0.629152
0.300785 0.099764 0.028607
0.259895 0.036201 0.297613
0.777973 0.034428 0.346704
0.691281 0.021474 0.246728
0.658524 0.017846 0.461398
0.746184 0.007460 0.631374
0.623940 0.003721 0.418239
0.685230 0.092963 0.277724
0.661983 0.028196 0.557116
0.434639 0.099646 0.298946
0.599941 0.057458 0.553403
0.719949 0.053981 0.545582
0.650877 0.122579 0.631811
0.205027 0.099970 0.393554
0.391200 0.014376 0.641548
0.663645 0.082189 0.739001
0.461250 0.093808 0.636107
0.776178 0.058231 0.689583
0.799663 0.102558 0.699818
0.679616 0.020692 0.775011
0.299844 0.099999 0.700028
0.287693 0.054514 0.496974
0.299570 0.099916 0.599053
0.576951 0.046573 0.647767
0.215993 0.062538 0.363361
0.416140 0.099838 0.328309
0.516702 0.099554 0.273715
0.780699 0.013479 0.510322
0.699907 0.040926 0.292093
0.775768 0.096114 0.267097
0.568085 0.088626 0.543817
0.747663 0.013965 0.299786
0.664066 0.100015 0.564151
0.599990 0.065353 0.678247
0.639430 0.062569 0.459596
0.598981 0.100272 0.519921
0.351886 0.099995 0.420201
0.599867 0.011528 0.574386
0.608892 0.028235 0.473063
0.691794 0.099992 0.619906
0.299346 0.014701 0.665780
0.692913 0.082897 0.782111
0.466786 0.052521 0.586924
0.564333 0.010218 0.713845
0.694302 0.140102 0.713570
0.431589 0.099824 0.674926
0.099827 0.092484 0.345122
0.298983 0.059548 0.727894
0.171848 0.099837 0.248637
0.584669 0.085855 0.299734
0.385019 0.016955 0.276386
0.707554 0.170599 0.285715
0.504852 0.099979 0.455523
0.592948 0.040791 0.299958
0.656876 0.071193 0.173707
0.672759 0.055597 0.490434
0.541288 0.099735 0.305481
0.615887 0.099986 0.417202
0.612023 0.100003 0.473640
0.606711 0.111732 0.657066
0.571032 0.099984 0.463058
0.599875 0.075275 0.613713
0.547740 0.087485 0.679729
0.658284 0.113774 0.787443
0.299975 0.056513 0.642626
0.663980 0.099965 0.699891
0.624012 0.191610 0.674224
0.741365 0.212417 0.699260
0.261191 0.099688 0.718127
0.299516 0.099830 0.735281
0.299356 0.058977 0.763232
0.702345 0.099249 0.698957
0.799799 0.051624 0.425258
0.326192 0.052861 0.228298
0.686170 0.099874 0.363552
0.399543 0.062021 0.252977
0.614082 0.099999 0.567813
0.400032 0.052283 0.306470
0.655292 0.062117 0.295392
0.752961 0.100642 0.530247
0.609343 0.099917 0.299924
0.688790 0.163378 0.320008
0.398608 0.099874 0.279540
0.637012 0.099981 0.258441
0.583052 0.135233 0.621508
0.650347 0.085513 0.600801
0.428912 0.037895 0.280553
0.658647 0.092221 0.523538
0.654125 0.130517 0.732574
0.664771 0.210259 0.686856
0.668441 0.201871 0.770842
0.688294 0.130804 0.503296
0.682915 0.171688 0.684168
0.745695 0.222804 0.639110
0.381790 0.099424 0.774133
0.695247 0.185668 0.503096
0.689340 0.132474 0.299800
0.737480 0.009268 0.428347
0.712757 0.018576 0.315880
0.534314 0.051904 0.377955
0.699952 0.116114 0.588360
0.769134 0.053608 0.300159
0.778204 0.099919 0.336888
0.675708 0.097076 0.324764
0.779705 0.012903 0.563115
0.752692 0.092123 0.618245
0.715770 0.143443 0.485291
0.691299 0.047873 0.199958
0.772778 0.072200 0.762073
0.773685 0.125942 0.580735
0.682279 0.126532 0.667942
0.712650 0.043139 0.603016
0.703914 0.091258 0.740403
0.735748 0.180479 0.661421
0.797759 0.045779 0.729004
0.745333 0.019953 0.708368
0.480624 0.002920 0.779129
0.733799 0.049536 0.781899
0.794930 0.115804 0.760904
0.737258 0.061393 0.733931
0.701848 0.100214 0.299831
0.759225 0.101672 0.415748
0.750680 0.083065 0.574249
0.700107 0.099938 0.407148
0.698315 0.099988 0.477829
0.700312 0.099953 0.434530
0.331427 0.092027 0.275181
0.660224 0.013148 0.290850
0.752793 0.054349 0.413016
0.693920 0.067849 0.397229
0.761506 0.041897 0.599195
0.734439 0.052349 0.641798
0.707431 0.162327 0.587465
0.706601 0.057042 0.494195
0.762969 0.021998 0.753653
0.683976 0.051222 0.599258
0.780957 0.159522 0.775941
0.793833 0.099944 0.600896
0.400178 0.069455 0.743104
0.722426 0.151211 0.690928
0.785834 0.041553 0.793927
0.699916 0.099311 0.702344
0.752041 0.093771 0.700186
0.714781 0.098662 0.660052
0.600266 0.100282 0.286508
0.697092 0.143408 0.399931
0.300805 0.052409 0.077581
0.731396 0.099986 0.386038
0.708736 0.013553 0.481323
0.706963 0.022665 0.385444
0.700108 0.053707 0.065916
0.729131 0.099863 0.336717
0.667973 0.145260 0.599075
0.638549 0.057448 0.636863
0.679686 0.189112 0.573724
0.733801 0.161810 0.735973
0.701454 0.127524 0.639421
0.799851 0.099753 0.522596
0.634475 0.199920 0.625660
0.726111 0.199895 0.556033
0.616928 0.099240 0.711970
0.749418 0.123052 0.777653
0.561237 0.085684 0.728553
0.771452 0.163097 0.628003
0.786498 0.012806 0.685809
0.727786 0.056500 0.686663
0.754573 0.199943 0.711598
0.770361 0.030298 0.458643
0.704633 0.099997 0.218188
0.776509 0.092392 0.391164
0.299550 0.099515 0.112422
0.764965 0.076063 0.475508
0.675557 0.072784 0.237334
0.447646 0.099737 0.256219
0.659842 0.036637 0.400964
0.730695 0.099126 0.460751
0.643909 0.141638 0.684638
0.779937 0.138425 0.284057
0.697225 0.099853 0.148831
0.679470 0.048577 0.336770
0.775882 0.195938 0.550357
0.796673 0.000921 0.619348
0.742836 0.040983 0.503441
0.736708 0.145661 0.553311
0.689935 0.184513 0.730940
0.738073 0.136654 0.602555
0.778197 0.146569 0.403163
0.711296 0.089965 0.599895
0.707197 0.152004 0.632211
0.758528 0.377116 0.560040
0.786225 0.155535 0.679988
0.784137 0.146812 0.539574
0.300949 0.050062 0.027742
0.714513 0.099776 0.099406
0.622791 0.053805 0.259040
0.732726 0.072319 0.300162
0.635932 0.116165 0.336540
0.729160 0.099865 0.263171
0.661504 0.100122 0.445360
0.276442 0.099887 0.152073
0.700198 0.109135 0.299712
0.700472 0.061642 0.301209
0.677254 0.065396 0.114255
0.299713 0.013904 0.201576
0.760229 0.099896 0.299798
0.710851 0.101130 0.550612
0.656460 0.099972 0.399261
0.699362 0.051849 0.443996
0.673504 0.179446 0.639418
0.736041 0.135099 0.299937
0.753383 0.192134 0.467142
0.781207 0.198189 0.660816
0.746857 0.133226 0.649677
0.761574 0.126882 0.467783
0.699967 0.167964 0.444453
0.798566 0.194012 0.488109

CELL_TYPES 360
1
1
1
1
1
1
1
1
1
1
1
1
1
1
1
1
1
1
1
1
1
1
1
1
1
1
1
1
1
1
1
1
1
1
1
1
1
1
1
1
1
1
1
1
1
1
1
1
1
1
1
1
1
1
1
1
1
1
1
1
1
1
1
1
1
1
1
1
1
1
1
1
1
1
1
1
1
1
1
1
1
1
1
1
1
1
1
1
1
1
1
1
1
1
1
1
1
1
1
1
1
1
1
1
1
1
1
1
1
1
1
1
1
1
1
1
1
1
1
1
1
1
1
1
1
1
1
1
1
1
1
1
1
1
1
1
1
1
1
1
1
1
1
1
1
1
1
1
1
1
1
1
1
1
1
1
1
1
1
1
1
1
1
1
1
1
1
1
1
1
1
1
1
1
1
1
1
1
1
1
1
1
1
1
1
1
1
1
1
1
1
1
1
1
1
1
1
1
1
1
1
1
1
1
1
1
1
1
1
1
1
1
1
1
1
1
1
1
1
1
1
1
1
1
1
1
1
1
1
1
1
1
1
1
1
1
1
1
1
1
1
1
1
1
1
1
1
1
1
1
1
1
1
1
1
1
1
1
1
1
1
1
1
1
1
1
1
1
1
1
1
1
1
1
1
1
1
1
1
1
1
1
1
1
1
1
1
1
1
1
1
1
1
1
1
1
1
1
1
1
1
1
1
1
1
1
1
1
1
1
1
1
1
1
1
1
1
1
1
1
1
1
1
1
1
1
1
1
1
1
1
1
1
1
1
1
1
1
1
1
1
1
1
1
1
1
1
1
1
1
1
1
1
1
1
1
1
1
1
1

POINT_DATA 360
SCALARS radius float
LOOKUP_TABLE default
0.5
0.5
0.5
0.5
0.5
0.5
0.5
0.5
0.5
0.5
0.5
0.5
0.5
0.5
0.5
0.5
0.5
0.5
0.5
0.5
0.5
0.5
0.5
0.5
0.5
0.5
0.5
0.5
0.5
0.5
0.5
0.5
0.5
0.5
0.5
0.5
0.5
0.5
0.5
0.5
0.5
0.5
0.5
0.5
0.5
0.5
0.5
0.5
0.5
0.5
0.5
0.5
0.5
0.5
0.5
0.5
0.5
0.5
0.5
0.5
0.5
0.5
0.5
0.5
0.5
0.5
0.5
0.5
0.5
0.5
0.5
0.5
0.5
0.5
0.5
0.5
0.5
0.5
0.5
0.5
0.5
0.5
0.5
0.5
0.5
0.5
0.5
0.5
0.5
0.5
0.5
0.5
0.5
0.5
0.5
0.5
0.5
0.5
0.5
0.5
0.5
0.5
0.5
0.5
0.5
0.5
0.5
0.5
0.5
0.5
0.5
0.5
0.5
0.5
0.5
0.5
0.5
0.5
0.5
0.5
0.5
0.5
0.5
0.5
0.5
0.5
0.5
0.5
0.5
0.5
0.5
0.5
0.5
0.5
0.5
0.5
0.5
0.5
0.5
0.5
0.5
0.5
0.5
0.5
0.5
0.5
0.5
0.5
0.5
0.5
0.5
0.5
0.5
0.5
0.5
0.5
0.5
0.5
0.5
0.5
0.5
0.5
0.5
0.5
0.5
0.5
0.5
0.5
0.5
0.5
0.5
0.5
0.5
0.5
0.5
0.5
0.5
0.5
0.5
0.5
0.5
0.5
0.5
0.5
0.5
0.5
0.5
0.5
0.5
0.5
0.5
0.5
0.5
0.5
0.5
0.5
0.5
0.5
0.5
0.5
0.5
0.5
0.5
0.5
0.5
0.5
0.5
0.5
0.5
0.5
0.5
0.5
0.5
0.5
0.5
0.5
0.5
0.5
0.5
0.5
0.5
0.5
0.5
0.5
0.5
0.5
0.5
0.5
0.5
0.5
0.5
0.5
0.5
0.5
0.5
0.5
0.5
0.5
0.5
0.5
0.5
0.5
0.5
0.5
0.5
0.5
0.5
0.5
0.5
0.5
0.5
0.5
0.5
0.5
0.5
0.5
0.5
0.5
0.5
0.5
0.5
0.5
0.5
0.5
0.5
0.5
0.5
0.5
0.5
0.5
0.5
0.5
0.5
0.5
0.5
0.5
0.5
0.5
0.5
0.5
0.5
0.5
0.5
0.5
0.5
0.5
0.5
0.5
0.5
0.5
0.5
0.5
0.5
0.5
0.5
0.5
0.5
0.5
0.5
0.5
0.5
0.5
0.5
0.5
0.5
0.5
0.5
0.5
0.5
0.5
0.5
0.5
0.5
0.5
0.5
0.5
0.5
0.5
0.5
0.5
0.5
0.5
0.5
0.5
0.5
0.5
0.5
0.5
0.5
0.5
0.5
0.5
0.5
0.5
0.5
0.5
0.5
0.5
0.5
0.5
0.5
0.5
0.5
0.5
0.5
0.5
0.5
0.5
0.5
0.5
0.5
0.5
0.5
0.5
0.5
0.5
0.5
0.5
0.5
0.5
