# vtk DataFile Version 2.0
Title Data
ASCII
DATASET UNSTRUCTURED_GRID
POINTS 512 float
0.101510 0.093256 0.051047
0.098052 0.091790 0.097943
0.103872 0.033475 0.056334
0.130517 0.051171 0.003440
0.104175 0.092663 0.077776
0.067497 0.076467 0.059878
0.064557 0.056759 0.134148
0.100095 0.034873 0.083057
0.107441 0.049220 0.037716
0.049036 0.034593 0.097055
0.099977 0.012357 0.099909
0.058186 0.090728 0.093372
0.105128 0.058255 0.159169
0.131216 0.049424 0.162697
0.113210 0.095529 0.141933
0.010611 0.089483 0.139630
0.031872 0.086360 0.180275
0.101737 0.070521 0.189274
0.099990 0.040159 0.205132
0.090832 0.016358 0.181022
0.060999 0.096482 0.258897
0.015032 0.079530 0.245215
0.054738 0.051035 0.261880
0.008684 0.034871 0.248160
0.042469 0.016407 0.338629
0.055394 0.096468 0.348636
0.093027 0.040976 0.301592
0.048361 0.043850 0.318864
0.022527 0.088575 0.459187
0.096505 0.007544 0.444267
0.014572 0.057073 0.430648
0.079135 0.051685 0.445674
0.099641 0.081963 0.054250
0.100021 0.051682 0.088975
0.134939 0.026339 0.081852
0.094945 0.011403 0.052237
0.050291 0.061231 0.098013
0.059108 0.045974 0.097083
0.099940 0.093997 0.099959
0.082064 0.008917 0.022042
0.096455 0.093066 0.123174
0.130222 0.097137 0.087029
0.100014 0.083243 0.099991
0.131608 0.074046 0.042129
0.109026 0.011764 0.046432
0.097229 0.001452 0.134048
0.055600 0.034108 0.049975
0.139907 0.057852 0.130530
0.085498 0.039033 0.163543
0.101142 0.040454 0.159349
0.052208 0.019605 0.159546
0.136927 0.006487 0.182069
0.035948 0.032339 0.200880
0.063245 0.023631 0.224513
0.100007 0.085321 0.203747
0.132195 0.001650 0.216591
0.103452 0.082049 0.258083
0.049271 0.071461 0.261168
0.133085 0.018303 0.267524
0.058817 0.037854 0.278224
0.099996 0.065302 0.321463
0.042382 0.070507 0.345691
0.010076 0.010991 0.365933
0.080950 0.007495 0.384684
0.024921 0.070328 0.051328
0.093809 0.056960 0.133789
0.059879 0.004713 0.003213
0.008228 0.024882 0.126697
0.010223 0.070151 0.126086
0.040510 0.071471 0.071669
0.051945 0.099411 0.088220
0.099954 0.024988 0.100001
0.050143 0.033000 0.125432
0.002913 0.053933 0.023000
0.126794 0.085735 0.100210
0.057140 0.086552 0.131064
0.127806 0.040132 0.126217
0.098248 0.033619 0.126025
0.065639 0.078442 0.151771
0.027579 0.067109 0.165987
0.037324 0.082310 0.210994
0.100198 0.074897 0.159614
0.100029 0.098300 0.200021
0.055201 0.008267 0.191408
0.134854 0.065041 0.243891
0.100530 0.061807 0.230777
0.094073 0.024028 0.252030
0.032957 0.017095 0.249918
0.099967 0.092861 0.300015
0.014938 0.077616 0.307506
0.100002 0.010879 0.288815
0.012664 0.029841 0.294288
0.020450 0.079008 0.384875
0.098890 0.086159 0.413799
0.015130 0.016271 0.411639
0.092044 0.054461 0.400819
0.050197 0.083985 0.039517
0.100031 0.099168 0.099479
0.063386 0.023801 0.132360
0.039480 0.043889 0.018200
0.008525 0.100000 0.083946
0.036818 0.098322 0.124167
0.097363 0.030337 0.005486
0.100027 0.039260 0.100096
0.057788 0.007842 0.054752
0.011678 0.025966 0.095886
0.102877 0.073192 0.044396
0.100361 0.055554 0.061780
0.100013 0.009128 0.109424
0.094934 0.028086 0.142451
0.137234 0.079672 0.130037
0.135227 0.092888 0.130774
0.065698 0.037006 0.180013
0.100031 0.050702 0.200028
0.086267 0.093512 0.154652
0.099953 0.081481 0.200051
0.053395 0.040892 0.230479
0.085176 0.065702 0.237306
0.046705 0.097477 0.218136
0.092554 0.002244 0.235975
0.014358 0.054593 0.279311
0.099983 0.064020 0.300038
0.087817 0.001157 0.272094
0.061522 0.085180 0.302849
0.100006 0.051677 0.381356
0.061922 0.078632 0.380880
0.102380 0.017321 0.341184
0.079815 0.037606 0.344063
0.071785 0.063237 0.029482
0.167487 0.064098 0.022957
0.101533 0.096303 0.004924
0.198544 0.001853 0.130397
0.069675 0.051481 0.051001
0.185329 0.044906 0.126034
0.135539 0.005974 0.082036
0.148611 0.092404 0.103583
0.040457 0.081304 0.104485
0.130239 0.046505 0.101539
0.029422 0.096217 0.044053
0.165159 0.090491 0.017196
0.016110 0.047980 0.128526
0.140536 0.072618 0.143774
0.025346 0.010809 0.160296
0.153135 0.013866 0.137898
0.065008 0.071288 0.194958
0.161876 0.079493 0.194811
0.100004 0.029093 0.200049
0.147374 0.048097 0.203976
0.103976 0.096262 0.248544
0.133885 0.092340 0.260690
0.110228 0.049379 0.247680
0.133051 0.043084 0.270062
0.017389 0.002621 0.317522
0.139602 0.014703 0.321799
0.054155 0.063683 0.307751
0.130268 0.045997 0.344282
0.045678 0.022815 0.452116
0.123409 0.035124 0.456396
0.075760 0.085565 0.463710
0.113598 0.058982 0.423598
0.126788 0.097905 0.165169
0.177595 0.098677 0.120005
0.139287 0.074403 0.084083
0.144212 0.048085 0.078735
0.075665 0.008801 0.087403
0.135625 0.007587 0.033704
0.047635 0.067280 0.125213
0.170464 0.059686 0.127630
0.134986 0.014620 0.007635
0.137640 0.006606 0.125285
0.069879 0.090512 0.082211
0.100019 0.063474 0.100032
0.014349 0.017403 0.045266
0.035556 0.018111 0.085434
0.016846 0.085646 0.088058
0.110133 0.082313 0.005182
0.053211 0.060396 0.160329
0.036482 0.043047 0.161423
0.130096 0.027161 0.164981
0.141392 0.034942 0.178343
0.064882 0.065186 0.223057
0.066376 0.053461 0.192377
0.011105 0.010555 0.213962
0.096413 0.088145 0.227142
0.033093 0.090567 0.277208
0.141230 0.074437 0.274670
0.089904 0.040968 0.259282
0.100038 0.021689 0.300005
0.084155 0.060330 0.346073
0.098723 0.081877 0.343172
0.087989 0.030223 0.376510
0.097224 0.086754 0.370033
0.067684 0.027356 0.060435
0.134648 0.046304 0.054736
0.139065 0.077545 0.064232
0.177384 0.076643 0.117613
0.085395 0.044042 0.014338
0.176910 0.040352 0.100002
0.135689 0.063045 0.095539
0.181028 0.070100 0.057054
0.072056 0.067569 0.078619
0.138937 0.055704 0.031849
0.100005 0.074013 0.100009
0.137562 0.093013 0.055962
0.097458 0.065997 0.122820
0.140018 0.029187 0.131836
0.060310 0.001936 0.128856
0.020230 0.087631 0.010909
0.089220 0.082694 0.169832
0.135822 0.088838 0.176915
0.100012 0.014154 0.200011
0.151007 0.019940 0.197492
0.061023 0.087446 0.236178
0.074049 0.095422 0.191001
0.134970 0.034150 0.225623
0.006194 0.027284 0.179294
0.087264 0.092894 0.331174
0.133159 0.076114 0.314840
0.071019 0.016455 0.313563
0.109960 0.041628 0.300020
0.051602 0.086453 0.421998
0.105481 0.004793 0.400015
0.063345 0.020369 0.414082
0.136178 0.031717 0.394942
0.140568 0.027156 0.101050
0.170279 0.033090 0.061660
0.078458 0.076699 0.100007
0.168577 0.081230 0.066200
0.079484 0.032624 0.093213
0.172159 0.025661 0.026467
0.100010 0.055560 0.100053
0.183157 0.087684 0.128964
0.048579 0.064780 0.000654
0.133504 0.023071 0.053889
0.042915 0.020606 0.005902
0.138485 0.086529 0.024558
0.024955 0.041822 0.052823
0.022259 0.052705 0.079686
0.096122 0.081892 0.135554
0.072895 0.092623 0.040128
0.136385 0.070122 0.168093
0.139333 0.072544 0.193543
0.098655 0.012851 0.157135
0.050625 0.093695 0.166383
0.012258 0.062654 0.191927
0.026855 0.055676 0.217943
0.100347 0.095539 0.181276
0.093760 0.021889 0.224409
0.088373 0.077338 0.281817
0.098882 0.063627 0.276596
0.048564 0.013761 0.287950
0.120780 0.096083 0.300197
0.049385 0.050191 0.407897
0.123753 0.066146 0.380071
0.043500 0.038004 0.371323
0.005861 0.045796 0.336514
0.203488 0.045490 0.075766
0.270308 0.098047 0.003436
0.228231 0.053743 0.066922
0.270379 0.045821 0.003514
0.200069 0.090609 0.099651
0.263220 0.071336 0.076594
0.228504 0.019077 0.007417
0.278648 0.031103 0.095233
0.200047 0.082786 0.099989
0.270381 0.096011 0.098199
0.202310 0.028314 0.036734
0.272122 0.046808 0.090665
0.219949 0.075080 0.131926
0.285568 0.091529 0.133822
0.209969 0.041600 0.142000
0.277582 0.035602 0.131555
0.205751 0.057938 0.153391
0.262660 0.082174 0.142745
0.186021 0.032084 0.166167
0.255659 0.022352 0.141925
0.167239 0.085637 0.230905
0.239044 0.081209 0.174110
0.141041 0.020160 0.236060
0.236653 0.035377 0.175022
0.184175 0.007582 0.318643
0.268052 0.015487 0.312693
0.172187 0.048261 0.331095
0.246292 0.054728 0.313890
0.147730 0.005411 0.430981
0.230415 0.097240 0.396752
0.157527 0.060366 0.422451
0.049559 0.055253 0.482676
0.178899 0.052011 0.064855
0.235675 0.036546 0.100542
0.165839 0.009465 0.051826
0.237704 0.081124 0.096644
0.163566 0.034883 0.090352
0.242644 0.043951 0.044909
0.172625 0.098021 0.064038
0.234186 0.100000 0.026499
0.168275 0.072525 0.101958
0.222756 0.072435 0.059483
0.169682 0.015568 0.098587
0.213811 0.018844 0.064055
0.163758 0.044084 0.030443
0.238038 0.027308 0.062025
0.199997 0.027421 0.115412
0.216982 0.089726 0.040855
0.166400 0.036531 0.138124
0.232676 0.048341 0.127602
0.159895 0.090886 0.155265
0.231587 0.095882 0.121390
0.177210 0.055141 0.201146
0.200040 0.052018 0.199985
0.171571 0.094383 0.200457
0.182017 0.080492 0.162720
0.182679 0.087870 0.262421
0.214229 0.068640 0.281601
0.167443 0.022482 0.277244
0.193152 0.039429 0.292117
0.136284 0.081026 0.346175
0.207070 0.072379 0.327924
0.127034 0.008540 0.361683
0.202295 0.043908 0.361743
0.206378 0.074423 0.041329
0.269628 0.066169 0.053703
0.200551 0.096128 0.099976
0.275008 0.023511 0.026631
0.164037 0.075125 0.088080
0.263562 0.063883 0.121535
0.200095 0.035746 0.099983
0.256763 0.001095 0.069368
0.181406 0.085240 0.038321
0.251408 0.089429 0.048880
0.200585 0.019726 0.099983
0.263104 0.018115 0.050430
0.204282 0.081187 0.149966
0.239231 0.085995 0.079187
0.207593 0.013839 0.151676
0.237144 0.022343 0.128240
0.172708 0.063956 0.164723
0.248439 0.062835 0.139007
0.181986 0.008390 0.164460
0.230710 0.012977 0.163698
0.143118 0.070482 0.229342
0.196284 0.076680 0.227967
0.175825 0.016336 0.205141
0.199981 0.014763 0.199983
0.167707 0.084537 0.337301
0.238444 0.090898 0.298685
0.147223 0.035518 0.303596
0.200837 0.038912 0.299994
0.151748 0.090736 0.390014
0.195932 0.092019 0.368280
0.182747 0.025897 0.400527
0.244417 0.032476 0.366721
0.205581 0.045528 0.029253
0.242820 0.054580 0.095422
0.204078 0.096644 0.074439
0.245849 0.002651 0.098343
0.200019 0.052734 0.100002
0.246592 0.056167 0.025848
0.165185 0.098187 0.093656
0.239410 0.089321 0.129624
0.202712 0.058448 0.005323
0.200035 0.074303 0.100000
0.205207 0.004280 0.052143
0.200330 0.003042 0.099994
0.200039 0.064738 0.099964
0.237695 0.073724 0.005609
0.182546 0.005001 0.007089
0.246586 0.024701 0.093562
0.168960 0.044708 0.166547
0.229440 0.056405 0.170072
0.166944 0.099373 0.160681
0.223649 0.093101 0.166247
0.117041 0.054646 0.200345
0.200024 0.034568 0.193831
0.131540 0.087811 0.218557
0.200002 0.096265 0.193566
0.150796 0.061694 0.301989
0.192681 0.076654 0.300034
0.159241 0.095031 0.293269
0.202867 0.099682 0.290855
0.165001 0.059674 0.374057
0.240379 0.077755 0.354229
0.164684 0.018894 0.358302
0.222790 0.014480 0.332263
0.358924 0.006924 0.100926
0.476221 0.081709 0.006600
0.337036 0.049917 0.098858
0.451435 0.049132 0.021571
0.358685 0.090735 0.021455
0.467086 0.097723 0.089212
0.335408 0.055079 0.053541
0.459478 0.052953 0.083443
0.341152 0.007653 0.048734
0.481408 0.016314 0.036420
0.338225 0.068362 0.033684
0.468514 0.080526 0.055172
0.345078 0.014670 0.132483
0.488648 0.030095 0.105535
0.363082 0.049844 0.128290
0.436545 0.077298 0.115025
0.336927 0.003717 0.175523
0.455559 0.002428 0.136718
0.351077 0.042841 0.167755
0.500301 0.054707 0.051163
0.337262 0.010847 0.246141
0.437302 0.081139 0.198702
0.339804 0.062326 0.240945
0.467002 0.059239 0.135283
0.232325 0.069550 0.215509
0.272109 0.095581 0.224891
0.222892 0.040031 0.219126
0.291426 0.043260 0.206055
0.232579 0.085800 0.256638
0.273572 0.094110 0.270773
0.239796 0.030730 0.278537
0.279992 0.048521 0.279784
0.275465 0.084007 0.032935
0.347793 0.065395 0.090877
0.299981 0.008626 0.099956
0.405287 0.025498 0.010570
0.275431 0.074181 0.099989
0.373558 0.081945 0.064447
0.299951 0.027417 0.099972
0.400344 0.002559 0.053621
0.299977 0.078614 0.100005
0.374931 0.060761 0.057715
0.284712 0.037904 0.061539
0.381157 0.020985 0.052841
0.299980 0.073211 0.117699
0.386321 0.081229 0.099986
0.302316 0.044137 0.053793
0.396455 0.099420 0.095888
0.300976 0.081938 0.163615
0.369449 0.083987 0.122128
0.299921 0.051312 0.136545
0.390867 0.021798 0.126700
0.301625 0.076287 0.200598
0.353051 0.072574 0.197320
0.300050 0.044627 0.193065
0.389352 0.046858 0.194272
0.176930 0.048211 0.227023
0.268821 0.041980 0.168284
0.193822 0.017311 0.227024
0.276169 0.008614 0.134211
0.170292 0.043784 0.249323
0.262172 0.030959 0.211327
0.164160 0.001473 0.245763
0.235132 0.092662 0.214102
0.334556 0.090394 0.088216
0.394225 0.087037 0.020168
0.331845 0.031074 0.062204
0.440537 0.022204 0.096203
0.326131 0.082393 0.101046
0.425951 0.081850 0.068087
0.325618 0.024673 0.088074
0.403815 0.044409 0.088674
0.348346 0.092699 0.069521
0.436132 0.092437 0.024002
0.324303 0.021421 0.016399
0.440949 0.019330 0.055000
0.330011 0.089673 0.130784
0.415223 0.009388 0.098075
0.319754 0.031443 0.119351
0.429112 0.036904 0.132119
0.363305 0.083961 0.158249
0.409716 0.090786 0.140311
0.311686 0.030880 0.159453
0.419705 0.025152 0.170302
0.318168 0.092308 0.210953
0.396700 0.087999 0.184087
0.332166 0.037776 0.207760
0.464387 0.031073 0.172179
0.200031 0.068510 0.195407
0.277864 0.062648 0.164436
0.236484 0.012597 0.202561
0.275517 0.010271 0.175421
0.172685 0.063573 0.265939
0.297621 0.070072 0.244171
0.204914 0.026304 0.256352
0.295008 0.024445 0.243944
0.299973 0.056300 0.099973
0.417872 0.064217 0.099385
0.294527 0.095238 0.072433
0.361600 0.025174 0.090394
0.308527 0.047947 0.010153
0.401828 0.061668 0.034628
0.315746 0.088842 0.037521
0.364711 0.032484 0.028613
0.307038 0.071931 0.071914
0.421083 0.046181 0.053417
0.300516 0.002953 0.051902
0.375138 0.039479 0.083954
0.294569 0.070170 0.030805
0.399992 0.055079 0.100028
0.299978 0.001900 0.099949
0.366542 0.055063 0.003047
0.335147 0.063117 0.134956
0.394944 0.058366 0.148777
0.309356 0.003834 0.147817
0.376981 0.017323 0.161043
0.324732 0.068334 0.168598
0.383811 0.077824 0.228960
0.299995 0.009744 0.200025
0.365313 0.012669 0.207132
0.249242 0.059790 0.197005
0.273451 0.076768 0.202505
0.200024 0.084732 0.199982
0.264703 0.094838 0.177357
0.213825 0.055157 0.249837
0.257789 0.059532 0.243027
0.209961 0.098582 0.241939
0.248011 0.021425 0.246257

CELL_TYPES 512
1
1
1
1
1
1
1
1
1
1
1
1
1
1
1
1
1
1
1
1
1
1
1
1
1
1
1
1
1
1
1
1
1
1
1
1
1
1
1
1
1
1
1
1
1
1
1
1
1
1
1
1
1
1
1
1
1
1
1
1
1
1
1
1
1
1
1
1
1
1
1
1
1
1
1
1
1
1
1
1
1
1
1
1
1
1
1
1
1
1
1
1
1
1
1
1
1
1
1
1
1
1
1
1
1
1
1
1
1
1
1
1
1
1
1
1
1
1
1
1
1
1
1
1
1
1
1
1
1
1
1
1
1
1
1
1
1
1
1
1
1
1
1
1
1
1
1
1
1
1
1
1
1
1
1
1
1
1
1
1
1
1
1
1
1
1
1
1
1
1
1
1
1
1
1
1
1
1
1
1
1
1
1
1
1
1
1
1
1
1
1
1
1
1
1
1
1
1
1
1
1
1
1
1
1
1
1
1
1
1
1
1
1
1
1
1
1
1
1
1
1
1
1
1
1
1
1
1
1
1
1
1
1
1
1
1
1
1
1
1
1
1
1
1
1
1
1
1
1
1
1
1
1
1
1
1
1
1
1
1
1
1
1
1
1
1
1
1
1
1
1
1
1
1
1
1
1
1
1
1
1
1
1
1
1
1
1
1
1
1
1
1
1
1
1
1
1
1
1
1
1
1
1
1
1
1
1
1
1
1
1
1
1
1
1
1
1
1
1
1
1
1
1
1
1
1
1
1
1
1
1
1
1
1
1
1
1
1
1
1
1
1
1
1
1
1
1
1
1
1
1
1
1
1
1
1
1
1
1
1
1
1
1
1
1
1
1
1
1
1
1
1
1
1
1
1
1
1
1
1
1
1
1
1
1
1
1
1
1
1
1
1
1
1
1
1
1
1
1
1
1
1
1
1
1
1
1
1
1
1
1
1
1
1
1
1
1
1
1
1
1
1
1
1
1
1
1
1
1
1
1
1
1
1
1
1
1
1
1
1
1
1
1
1
1
1
1
1
1
1
1
1
1
1
1
1
1
1
1
1
1
1
1
1
1
1
1
1
1
1
1
1
1
1
1
1
1
1
1
1
1
1
1
1
1
1
1
1
1
1
1
1
1
1
1
1
1
1
1
1
1
1
1
1
1
1
1
1
1
1
1
1

POINT_DATA 512
SCALARS radius float
LOOKUP_TABLE default
0.5
0.5
0.5
0.5
0.5
0.5
0.5
0.5
0.5
0.5
0.5
0.5
0.5
0.5
0.5
0.5
0.5
0.5
0.5
0.5
0.5
0.5
0.5
0.5
0.5
0.5
0.5
0.5
0.5
0.5
0.5
0.5
0.5
0.5
0.5
0.5
0.5
0.5
0.5
0.5
0.5
0.5
0.5
0.5
0.5
0.5
0.5
0.5
0.5
0.5
0.5
0.5
0.5
0.5
0.5
0.5
0.5
0.5
0.5
0.5
0.5
0.5
0.5
0.5
0.5
0.5
0.5
0.5
0.5
0.5
0.5
0.5
0.5
0.5
0.5
0.5
0.5
0.5
0.5
0.5
0.5
0.5
0.5
0.5
0.5
0.5
0.5
0.5
0.5
0.5
0.5
0.5
0.5
0.5
0.5
0.5
0.5
0.5
0.5
0.5
0.5
0.5
0.5
0.5
0.5
0.5
0.5
0.5
0.5
0.5
0.5
0.5
0.5
0.5
0.5
0.5
0.5
0.5
0.5
0.5
0.5
0.5
0.5
0.5
0.5
0.5
0.5
0.5
0.5
0.5
0.5
0.5
0.5
0.5
0.5
0.5
0.5
0.5
0.5
0.5
0.5
0.5
0.5
0.5
0.5
0.5
0.5
0.5
0.5
0.5
0.5
0.5
0.5
0.5
0.5
0.5
0.5
0.5
0.5
0.5
0.5
0.5
0.5
0.5
0.5
0.5
0.5
0.5
0.5
0.5
0.5
0.5
0.5
0.5
0.5
0.5
0.5
0.5
0.5
0.5
0.5
0.5
0.5
0.5
0.5
0.5
0.5
0.5
0.5
0.5
0.5
0.5
0.5
0.5
0.5
0.5
0.5
0.5
0.5
0.5
0.5
0.5
0.5
0.5
0.5
0.5
0.5
0.5
0.5
0.5
0.5
0.5
0.5
0.5
0.5
0.5
0.5
0.5
0.5
0.5
0.5
0.5
0.5
0.5
0.5
0.5
0.5
0.5
0.5
0.5
0.5
0.5
0.5
0.5
0.5
0.5
0.5
0.5
0.5
0.5
0.5
0.5
0.5
0.5
0.5
0.5
0.5
0.5
0.5
0.5
0.5
0.5
0.5
0.5
0.5
0.5
0.5
0.5
0.5
0.5
0.5
0.5
0.5
0.5
0.5
0.5
0.5
0.5
0.5
0.5
0.5
0.5
0.5
0.5
0.5
0.5
0.5
0.5
0.5
0.5
0.5
0.5
0.5
0.5
0.5
0.5
0.5
0.5
0.5
0.5
0.5
0.5
0.5
0.5
0.5
0.5
0.5
0.5
0.5
0.5
0.5
0.5
0.5
0.5
0.5
0.5
0.5
0.5
0.5
0.5
0.5
0.5
0.5
0.5
0.5
0.5
0.5
0.5
0.5
0.5
0.5
0.5
0.5
0.5
0.5
0.5
0.5
0.5
0.5
0.5
0.5
0.5
0.5
0.5
0.5
0.5
0.5
0.5
0.5
0.5
0.5
0.5
0.5
0.5
0.5
0.5
0.5
0.5
0.5
0.5
0.5
0.5
0.5
0.5
0.5
0.5
0.5
0.5
0.5
0.5
0.5
0.5
0.5
0.5
0.5
0.5
0.5
0.5
0.5
0.5
0.5
0.5
0.5
0.5
0.5
0.5
0.5
0.5
0.5
0.5
0.5
0.5
0.5
0.5
0.5
0.5
0.5
0.5
0.5
0.5
0.5
0.5
0.5
0.5
0.5
0.5
0.5
0.5
0.5
0.5
0.5
0.5
0.5
0.5
0.5
0.5
0.5
0.5
0.5
0.5
0.5
0.5
0.5
0.5
0.5
0.5
0.5
0.5
0.5
0.5
0.5
0.5
0.5
0.5
0.5
0.5
0.5
0.5
0.5
0.5
0.5
0.5
0.5
0.5
0.5
0.5
0.5
0.5
0.5
0.5
0.5
0.5
0.5
0.5
0.5
0.5
0.5
0.5
0.5
0.5
0.5
0.5
0.5
0.5
0.5
0.5
0.5
0.5
0.5
0.5
0.5
0.5
0.5
0.5
0.5
0.5
0.5
0.5
0.5
0.5
0.5
0.5
0.5
0.5
0.5
0.5
0.5
0.5
0.5
0.5
0.5
0.5
0.5
0.5
0.5
0.5
0.5
0.5
0.5
0.5
0.5
0.5
0.5
0.5
0.5
0.5
0.5
0.5
0.5
0.5
0.5
0.5
0.5
0.5
0.5
0.5
0.5
0.5
0.5
0.5
0.5
0.5
