# vtk DataFile Version 2.0
Title Data
ASCII
DATASET UNSTRUCTURED_GRID
POINTS 360 float
0.337383 0.249685 0.329034
0.398925 0.251260 0.333684
0.286705 0.298281 0.323327
0.361482 0.286045 0.289270
0.335616 0.249675 0.378961
0.387811 0.249597 0.388423
0.283816 0.298562 0.373228
0.367493 0.279833 0.356810
0.328346 0.252871 0.439426
0.383432 0.252931 0.437091
0.300673 0.299510 0.452744
0.355967 0.279969 0.466233
0.330385 0.249264 0.488505
0.385269 0.248540 0.485970
0.298748 0.299911 0.503773
0.360685 0.299853 0.507130
0.332187 0.249912 0.535962
0.382147 0.246119 0.532456
0.290725 0.297294 0.557494
0.363551 0.274224 0.565664
0.330110 0.248226 0.585554
0.391240 0.244531 0.586591
0.299926 0.296389 0.610590
0.358617 0.289006 0.630464
0.333267 0.296209 0.329265
0.391378 0.299679 0.320210
0.352101 0.329524 0.332748
0.395387 0.348025 0.329069
0.330338 0.297212 0.379359
0.379761 0.299800 0.399957
0.349677 0.333009 0.382193
0.394713 0.347957 0.378841
0.340203 0.299192 0.425434
0.391832 0.299706 0.447929
0.358132 0.322011 0.460702
0.399707 0.347730 0.450184
0.320049 0.299765 0.493696
0.399525 0.299803 0.496467
0.345159 0.364406 0.500038
0.392316 0.367445 0.498578
0.331419 0.296283 0.539493
0.389345 0.299931 0.543138
0.354615 0.325337 0.548889
0.397117 0.346342 0.542474
0.332500 0.299948 0.588940
0.388043 0.299741 0.599942
0.342547 0.353910 0.592206
0.390451 0.359549 0.592167
0.318173 0.396549 0.324545
0.367572 0.395016 0.324551
0.312532 0.464377 0.324746
0.361583 0.453096 0.324613
0.318121 0.396312 0.374767
0.367420 0.395122 0.374805
0.312499 0.464290 0.374872
0.361578 0.452909 0.374794
0.323684 0.391618 0.444761
0.372478 0.393816 0.446355
0.309572 0.462039 0.438148
0.358309 0.447749 0.441434
0.321456 0.406525 0.491117
0.371365 0.411759 0.491679
0.308041 0.472035 0.486698
0.357831 0.463723 0.488797
0.320239 0.395179 0.536883
0.369564 0.394107 0.536795
0.313466 0.463484 0.534970
0.361583 0.450123 0.536324
0.318932 0.404189 0.585530
0.369080 0.403940 0.585220
0.312823 0.470803 0.584208
0.361570 0.460667 0.585225
0.304822 0.510742 0.325051
0.360463 0.499776 0.325123
0.304360 0.571157 0.324939
0.363415 0.560432 0.324923
0.304834 0.510690 0.375038
0.360473 0.499895 0.375099
0.304356 0.571154 0.374969
0.363413 0.560412 0.374961
0.299846 0.512015 0.432763
0.358100 0.498411 0.432939
0.299866 0.570870 0.432406
0.359988 0.553541 0.433829
0.301893 0.518611 0.481919
0.359082 0.509366 0.481668
0.301982 0.576889 0.481874
0.362020 0.566772 0.482573
0.299970 0.509923 0.531246
0.358654 0.499300 0.530860
0.301502 0.568642 0.531088
0.361490 0.556381 0.531411
0.301827 0.517058 0.580861
0.359529 0.507021 0.580377
0.303494 0.575334 0.580761
0.362785 0.565833 0.581015
0.304578 0.619178 0.325008
0.364100 0.608388 0.325011
0.314832 0.683408 0.325000
0.369472 0.680819 0.325000
0.304579 0.619179 0.375007
0.364100 0.608376 0.375011
0.314832 0.683408 0.375000
0.369472 0.680819 0.375000
0.301246 0.614875 0.428467
0.362313 0.601254 0.427953
0.312068 0.679993 0.434386
0.367843 0.676236 0.434037
0.302791 0.624502 0.479274
0.363048 0.613907 0.479087
0.315350 0.686603 0.485169
0.369755 0.684492 0.485075
0.304510 0.616783 0.529598
0.364121 0.604734 0.529691
0.314092 0.681046 0.535193
0.369010 0.678108 0.535139
0.305578 0.623420 0.579595
0.364675 0.613807 0.579661
0.316282 0.686345 0.585207
0.370247 0.684269 0.585197
0.435575 0.256526 0.293085
0.490685 0.276391 0.270372
0.448460 0.272963 0.336457
0.497656 0.290175 0.331517
0.434630 0.253480 0.376090
0.481262 0.256927 0.364734
0.444226 0.292660 0.400662
0.499832 0.288234 0.395694
0.437309 0.254758 0.431422
0.485153 0.259945 0.428998
0.457290 0.291559 0.448078
0.500177 0.299417 0.451656
0.450090 0.249358 0.485675
0.493758 0.259272 0.475259
0.447933 0.293819 0.499240
0.499978 0.299852 0.499910
0.427672 0.260774 0.526555
0.491407 0.264201 0.521032
0.462906 0.256613 0.558616
0.504324 0.285792 0.560606
0.436959 0.253861 0.599247
0.479882 0.260591 0.620743
0.441960 0.298165 0.644277
0.513090 0.295810 0.623965
0.408599 0.299574 0.292354
0.461434 0.299316 0.297847
0.426830 0.299840 0.325529
0.475158 0.316556 0.324880
0.409858 0.294635 0.364073
0.469686 0.300006 0.362821
0.435658 0.304787 0.390783
0.478061 0.327560 0.387505
0.404062 0.299705 0.408356
0.481355 0.299831 0.409222
0.424062 0.299919 0.445965
0.487941 0.316876 0.450785
0.419839 0.271693 0.469485
0.474463 0.299921 0.485980
0.418295 0.316293 0.497834
0.477828 0.336904 0.499974
0.406649 0.299955 0.503511
0.466679 0.299924 0.528574
0.437186 0.299552 0.548418
0.485022 0.299809 0.555336
0.414907 0.286024 0.571409
0.462545 0.293774 0.588019
0.423851 0.298878 0.606645
0.475555 0.299352 0.602551
0.416525 0.393147 0.324380
0.464312 0.379443 0.324783
0.410421 0.462541 0.324987
0.462317 0.453145 0.324956
0.416134 0.392903 0.374329
0.464110 0.381107 0.374587
0.410405 0.462474 0.375001
0.462317 0.453147 0.375002
0.417701 0.391578 0.427918
0.463759 0.370242 0.436012
0.405753 0.459457 0.432515
0.458466 0.448054 0.433851
0.418252 0.398668 0.476277
0.464574 0.388167 0.483784
0.406594 0.468933 0.481692
0.461525 0.459884 0.482750
0.417396 0.389787 0.526998
0.463074 0.368825 0.533341
0.410288 0.453791 0.530597
0.460701 0.443219 0.531320
0.419348 0.394986 0.576486
0.465279 0.376827 0.582408
0.410509 0.461731 0.580417
0.462279 0.451918 0.581071
0.409537 0.509109 0.325005
0.464292 0.499692 0.325006
0.414075 0.572276 0.325000
0.468976 0.571390 0.325000
0.409537 0.509045 0.375004
0.464292 0.499697 0.375004
0.414075 0.572276 0.375000
0.468976 0.571390 0.375000
0.406804 0.506059 0.427598
0.462265 0.498575 0.427759
0.410773 0.566563 0.434942
0.467168 0.565254 0.434588
0.408702 0.515314 0.478590
0.463017 0.505731 0.478477
0.414924 0.581395 0.485642
0.469534 0.580967 0.485442
0.408590 0.500456 0.529038
0.463983 0.496898 0.529154
0.412673 0.563418 0.535739
0.468229 0.561302 0.535619
0.409692 0.508101 0.578989
0.464818 0.499679 0.579019
0.415639 0.575926 0.585622
0.469890 0.575207 0.585609
0.416408 0.619616 0.325000
0.471282 0.618669 0.325000
0.431058 0.683633 0.325000
0.483269 0.687457 0.325000
0.416408 0.619616 0.375000
0.471282 0.618669 0.375000
0.431058 0.683633 0.375000
0.483269 0.687457 0.375000
0.415171 0.613024 0.431734
0.470976 0.611712 0.431091
0.431786 0.677559 0.439682
0.484940 0.684054 0.439610
0.416464 0.628270 0.482822
0.471698 0.628497 0.482876
0.433771 0.689454 0.491042
0.485208 0.692722 0.490268
0.416639 0.610876 0.533540
0.471367 0.608985 0.533846
0.430364 0.677532 0.540389
0.483003 0.682718 0.539635
0.417392 0.623279 0.583073
0.471815 0.622624 0.583228
0.432119 0.687034 0.590278
0.483612 0.690214 0.589454
0.495307 0.248836 0.318098
0.586278 0.239909 0.319219
0.542374 0.254890 0.327925
0.617344 0.291916 0.327483
0.513189 0.231182 0.381416
0.584904 0.233642 0.368698
0.551036 0.252381 0.396436
0.620659 0.288601 0.380562
0.507128 0.222632 0.439063
0.583903 0.241012 0.430123
0.540064 0.258764 0.444542
0.617783 0.282007 0.440129
0.518946 0.222567 0.486733
0.581456 0.234517 0.478311
0.547327 0.256638 0.500440
0.620182 0.295079 0.499929
0.507928 0.225342 0.535529
0.580871 0.237928 0.530484
0.540840 0.258539 0.549470
0.618538 0.271539 0.549235
0.503733 0.248341 0.583892
0.572375 0.241457 0.582578
0.562151 0.287525 0.623769
0.603967 0.289673 0.600148
0.529690 0.294774 0.285424
0.574974 0.284447 0.299995
0.529889 0.299840 0.321648
0.573026 0.306680 0.330327
0.534231 0.281418 0.362180
0.580905 0.276186 0.355591
0.521042 0.311288 0.380085
0.570618 0.302900 0.386622
0.529788 0.290121 0.407676
0.578737 0.286244 0.410192
0.531161 0.311371 0.434892
0.574874 0.308690 0.442726
0.540696 0.293433 0.473278
0.584321 0.280751 0.471959
0.518394 0.324548 0.488746
0.571806 0.320332 0.491456
0.536994 0.292975 0.518529
0.585028 0.283787 0.516788
0.519072 0.319257 0.538368
0.568432 0.310452 0.541547
0.538038 0.289352 0.584187
0.583598 0.285952 0.574503
0.514154 0.325246 0.586575
0.568412 0.323016 0.589191
0.513031 0.389187 0.325068
0.564485 0.381406 0.325003
0.511578 0.460275 0.325000
0.567015 0.458037 0.325000
0.512900 0.389282 0.375071
0.564488 0.381405 0.375003
0.511579 0.460277 0.375000
0.567015 0.458037 0.375000
0.510511 0.389241 0.430869
0.562771 0.380225 0.431813
0.507310 0.457825 0.432946
0.564574 0.454754 0.432581
0.511863 0.397261 0.480173
0.563634 0.391132 0.480886
0.511733 0.474020 0.484192
0.567670 0.473114 0.484025
0.509919 0.390350 0.530243
0.563782 0.382598 0.530452
0.509483 0.457314 0.534413
0.566139 0.454317 0.534215
0.511146 0.396463 0.579919
0.564549 0.390089 0.580161
0.512752 0.469806 0.584370
0.568234 0.468691 0.584411
0.517085 0.505803 0.325000
0.571654 0.503650 0.325000
0.529841 0.567957 0.325000
0.582763 0.576259 0.325000
0.517084 0.505804 0.375000
0.571654 0.503650 0.375000
0.529841 0.567957 0.375000
0.582763 0.576259 0.375000
0.516243 0.502661 0.432463
0.571341 0.500073 0.431924
0.530157 0.560102 0.438376
0.584180 0.572505 0.438611
0.516944 0.519720 0.483008
0.571927 0.519113 0.483068
0.532688 0.585698 0.490758
0.584597 0.589727 0.489945
0.517703 0.502188 0.533436
0.571871 0.499859 0.533981
0.529020 0.560668 0.540209
0.582243 0.570343 0.539181
0.518036 0.515320 0.582798
0.572176 0.514259 0.582847
0.530994 0.579949 0.590095
0.582892 0.585898 0.589142
0.529465 0.615292 0.325000
0.580448 0.623472 0.325000
0.533038 0.684396 0.325000
0.584420 0.689207 0.325000
0.529465 0.615292 0.375000
0.580448 0.623472 0.375000
0.533038 0.684396 0.375000
0.584420 0.689207 0.375000
0.532328 0.606909 0.439097
0.582591 0.619258 0.436808
0.535582 0.679457 0.447021
0.587027 0.686748 0.447204
0.530974 0.634950 0.488288
0.581983 0.642979 0.487364
0.537531 0.694442 0.501511
0.587430 0.697576 0.497990
0.530682 0.607820 0.540115
0.581235 0.617374 0.539524
0.532149 0.677260 0.548976
0.583765 0.685212 0.546098
0.529985 0.627135 0.587778
0.580862 0.633748 0.587438
0.534567 0.691611 0.597636
0.585214 0.694269 0.595233

CELL_TYPES 360
1
1
1
1
1
1
1
1
1
1
1
1
1
1
1
1
1
1
1
1
1
1
1
1
1
1
1
1
1
1
1
1
1
1
1
1
1
1
1
1
1
1
1
1
1
1
1
1
1
1
1
1
1
1
1
1
1
1
1
1
1
1
1
1
1
1
1
1
1
1
1
1
1
1
1
1
1
1
1
1
1
1
1
1
1
1
1
1
1
1
1
1
1
1
1
1
1
1
1
1
1
1
1
1
1
1
1
1
1
1
1
1
1
1
1
1
1
1
1
1
1
1
1
1
1
1
1
1
1
1
1
1
1
1
1
1
1
1
1
1
1
1
1
1
1
1
1
1
1
1
1
1
1
1
1
1
1
1
1
1
1
1
1
1
1
1
1
1
1
1
1
1
1
1
1
1
1
1
1
1
1
1
1
1
1
1
1
1
1
1
1
1
1
1
1
1
1
1
1
1
1
1
1
1
1
1
1
1
1
1
1
1
1
1
1
1
1
1
1
1
1
1
1
1
1
1
1
1
1
1
1
1
1
1
1
1
1
1
1
1
1
1
1
1
1
1
1
1
1
1
1
1
1
1
1
1
1
1
1
1
1
1
1
1
1
1
1
1
1
1
1
1
1
1
1
1
1
1
1
1
1
1
1
1
1
1
1
1
1
1
1
1
1
1
1
1
1
1
1
1
1
1
1
1
1
1
1
1
1
1
1
1
1
1
1
1
1
1
1
1
1
1
1
1
1
1
1
1
1
1
1
1
1
1
1
1
1
1
1
1
1
1
1
1
1
1
1
1
1
1
1
1
1
1
1
1
1
1
1
1

POINT_DATA 360
SCALARS radius float
LOOKUP_TABLE default
0.5
0.5
0.5
0.5
0.5
0.5
0.5
0.5
0.5
0.5
0.5
0.5
0.5
0.5
0.5
0.5
0.5
0.5
0.5
0.5
0.5
0.5
0.5
0.5
0.5
0.5
0.5
0.5
0.5
0.5
0.5
0.5
0.5
0.5
0.5
0.5
0.5
0.5
0.5
0.5
0.5
0.5
0.5
0.5
0.5
0.5
0.5
0.5
0.5
0.5
0.5
0.5
0.5
0.5
0.5
0.5
0.5
0.5
0.5
0.5
0.5
0.5
0.5
0.5
0.5
0.5
0.5
0.5
0.5
0.5
0.5
0.5
0.5
0.5
0.5
0.5
0.5
0.5
0.5
0.5
0.5
0.5
0.5
0.5
0.5
0.5
0.5
0.5
0.5
0.5
0.5
0.5
0.5
0.5
0.5
0.5
0.5
0.5
0.5
0.5
0.5
0.5
0.5
0.5
0.5
0.5
0.5
0.5
0.5
0.5
0.5
0.5
0.5
0.5
0.5
0.5
0.5
0.5
0.5
0.5
0.5
0.5
0.5
0.5
0.5
0.5
0.5
0.5
0.5
0.5
0.5
0.5
0.5
0.5
0.5
0.5
0.5
0.5
0.5
0.5
0.5
0.5
0.5
0.5
0.5
0.5
0.5
0.5
0.5
0.5
0.5
0.5
0.5
0.5
0.5
0.5
0.5
0.5
0.5
0.5
0.5
0.5
0.5
0.5
0.5
0.5
0.5
0.5
0.5
0.5
0.5
0.5
0.5
0.5
0.5
0.5
0.5
0.5
0.5
0.5
0.5
0.5
0.5
0.5
0.5
0.5
0.5
0.5
0.5
0.5
0.5
0.5
0.5
0.5
0.5
0.5
0.5
0.5
0.5
0.5
0.5
0.5
0.5
0.5
0.5
0.5
0.5
0.5
0.5
0.5
0.5
0.5
0.5
0.5
0.5
0.5
0.5
0.5
0.5
0.5
0.5
0.5
0.5
0.5
0.5
0.5
0.5
0.5
0.5
0.5
0.5
0.5
0.5
0.5
0.5
0.5
0.5
0.5
0.5
0.5
0.5
0.5
0.5
0.5
0.5
0.5
0.5
0.5
0.5
0.5
0.5
0.5
0.5
0.5
0.5
0.5
0.5
0.5
0.5
0.5
0.5
0.5
0.5
0.5
0.5
0.5
0.5
0.5
0.5
0.5
0.5
0.5
0.5
0.5
0.5
0.5
0.5
0.5
0.5
0.5
0.5
0.5
0.5
0.5
0.5
0.5
0.5
0.5
0.5
0.5
0.5
0.5
0.5
0.5
0.5
0.5
0.5
0.5
0.5
0.5
0.5
0.5
0.5
0.5
0.5
0.5
0.5
0.5
0.5
0.5
0.5
0.5
0.5
0.5
0.5
0.5
0.5
0.5
0.5
0.5
0.5
0.5
0.5
0.5
0.5
0.5
0.5
0.5
0.5
0.5
0.5
0.5
0.5
0.5
0.5
0.5
0.5
0.5
0.5
0.5
0.5
0.5
0.5
0.5
0.5
0.5
0.5
0.5
0.5
0.5
0.5
0.5
0.5
0.5
0.5
0.5
0.5
0.5
0.5
0.5
