# vtk DataFile Version 2.0
Title Data
ASCII
DATASET UNSTRUCTURED_GRID
POINTS 384 float
0.024790 0.521572 0.024790
0.074652 0.521571 0.024789
0.024815 0.569612 0.024815
0.074690 0.569607 0.024815
0.024789 0.521571 0.074652
0.074652 0.521570 0.074652
0.024815 0.569607 0.074690
0.074689 0.569602 0.074689
0.024809 0.521242 0.124337
0.074685 0.521240 0.124336
0.024835 0.569096 0.124396
0.074722 0.569091 0.124395
0.024808 0.521236 0.174050
0.074683 0.521235 0.174049
0.024834 0.569077 0.174150
0.074721 0.569071 0.174149
0.024851 0.520465 0.223549
0.074754 0.520463 0.223547
0.024875 0.567886 0.223696
0.074789 0.567879 0.223695
0.024848 0.520464 0.273143
0.074749 0.520461 0.273141
0.024874 0.567854 0.273359
0.074786 0.567847 0.273358
0.024917 0.518937 0.322445
0.074863 0.518934 0.322442
0.024936 0.565515 0.322689
0.074890 0.565509 0.322687
0.024914 0.518854 0.372866
0.074859 0.518851 0.372864
0.024936 0.565329 0.373175
0.074888 0.565322 0.373174
0.024623 0.615258 0.024623
0.074384 0.615239 0.024622
0.024632 0.664078 0.024632
0.074389 0.664060 0.024631
0.024622 0.615239 0.074384
0.074383 0.615220 0.074383
0.024631 0.664060 0.074389
0.074387 0.664042 0.074387
0.024658 0.614323 0.123838
0.074443 0.614303 0.123834
0.024667 0.663028 0.123818
0.074447 0.663008 0.123815
0.024654 0.614257 0.173342
0.074436 0.614236 0.173338
0.024663 0.662963 0.173324
0.074441 0.662942 0.173319
0.024732 0.612115 0.222464
0.074565 0.612093 0.222457
0.024742 0.660577 0.222401
0.074571 0.660555 0.222394
0.024723 0.611971 0.271794
0.074550 0.611947 0.271787
0.024733 0.660436 0.271720
0.074556 0.660412 0.271713
0.024851 0.607769 0.320544
0.074759 0.607751 0.320536
0.024859 0.655927 0.320333
0.074764 0.655908 0.320325
0.024842 0.607293 0.371280
0.074746 0.607273 0.371275
0.024851 0.655404 0.371192
0.074752 0.655382 0.371186
0.024556 0.713022 0.024556
0.074272 0.713000 0.024554
0.024533 0.767464 0.024533
0.074223 0.767451 0.024531
0.024554 0.713000 0.074272
0.074269 0.712979 0.074269
0.024531 0.767451 0.074223
0.074221 0.767437 0.074221
0.024600 0.711919 0.123617
0.074345 0.711896 0.123612
0.024579 0.766779 0.123505
0.074299 0.766763 0.123499
0.024595 0.711842 0.173039
0.074336 0.711817 0.173033
0.024572 0.766727 0.172863
0.074289 0.766711 0.172856
0.024693 0.709419 0.222007
0.074498 0.709394 0.221998
0.024674 0.765284 0.221717
0.074458 0.765267 0.221707
0.024680 0.709249 0.271238
0.074477 0.709221 0.271229
0.024659 0.765154 0.270811
0.074434 0.765135 0.270800
0.024836 0.705057 0.319823
0.074732 0.705037 0.319813
0.024824 0.763056 0.319216
0.074707 0.763043 0.319203
0.024826 0.704502 0.370711
0.074715 0.704479 0.370703
0.024812 0.762657 0.370168
0.074687 0.762641 0.370159
0.124337 0.521242 0.024809
0.174050 0.521236 0.024808
0.124396 0.569096 0.024835
0.174150 0.569077 0.024834
0.124336 0.521240 0.074685
0.174049 0.521235 0.074683
0.124395 0.569091 0.074722
0.174149 0.569071 0.074721
0.124400 0.520943 0.124400
0.174139 0.520935 0.124396
0.124457 0.568630 0.124457
0.174234 0.568607 0.124454
0.124396 0.520935 0.174139
0.174133 0.520927 0.174133
0.124454 0.568607 0.174234
0.174231 0.568584 0.174231
0.124531 0.520233 0.223683
0.174325 0.520222 0.223675
0.124584 0.567521 0.223823
0.174411 0.567494 0.223819
0.124522 0.520226 0.273310
0.174314 0.520214 0.273302
0.124579 0.567481 0.273513
0.174405 0.567453 0.273509
0.124738 0.518807 0.322669
0.174622 0.518797 0.322660
0.124778 0.565306 0.322897
0.174684 0.565283 0.322893
0.124731 0.518728 0.373050
0.174612 0.518716 0.373044
0.124775 0.565131 0.373334
0.174681 0.565105 0.373332
0.123838 0.614323 0.024658
0.173342 0.614257 0.024654
0.123818 0.663028 0.024667
0.173324 0.662963 0.024663
0.123834 0.614303 0.074443
0.173338 0.614236 0.074436
0.123815 0.663008 0.074447
0.173319 0.662942 0.074441
0.123950 0.613474 0.123950
0.173500 0.613403 0.123937
0.123933 0.662072 0.123933
0.173484 0.662000 0.123920
0.123937 0.613403 0.173500
0.173484 0.613329 0.173484
0.123920 0.662000 0.173484
0.173467 0.661925 0.173467
0.124185 0.611444 0.222707
0.173832 0.611368 0.222684
0.124171 0.659820 0.222650
0.173819 0.659740 0.222626
0.124158 0.611291 0.272095
0.173796 0.611209 0.272070
0.124143 0.659666 0.272027
0.173784 0.659579 0.272002
0.124550 0.607382 0.320964
0.174353 0.607318 0.320936
0.124543 0.655487 0.320770
0.174348 0.655419 0.320741
0.124528 0.606933 0.371627
0.174323 0.606861 0.371606
0.124521 0.654990 0.371544
0.174318 0.654913 0.371524
0.123617 0.711919 0.024600
0.173039 0.711842 0.024595
0.123505 0.766779 0.024579
0.172863 0.766727 0.024572
0.123612 0.711896 0.074345
0.173033 0.711817 0.074336
0.123499 0.766763 0.074299
0.172856 0.766711 0.074289
0.123759 0.710920 0.123759
0.173236 0.710836 0.123741
0.123652 0.766157 0.123652
0.173071 0.766099 0.123631
0.123741 0.710836 0.173236
0.173213 0.710748 0.173213
0.123631 0.766099 0.173071
0.173044 0.766039 0.173044
0.124050 0.708636 0.222307
0.173644 0.708546 0.222276
0.123958 0.764796 0.222034
0.173505 0.764733 0.221997
0.124013 0.708453 0.271604
0.173596 0.708355 0.271572
0.123912 0.764656 0.271209
0.173446 0.764587 0.271168
0.124492 0.704610 0.320326
0.174270 0.704539 0.320290
0.124432 0.762777 0.319757
0.174186 0.762729 0.319710
0.124464 0.704084 0.371119
0.174232 0.704003 0.371093
0.124396 0.762397 0.370619
0.174137 0.762340 0.370585
0.223549 0.520465 0.024851
0.273143 0.520464 0.024848
0.223696 0.567886 0.024875
0.273359 0.567854 0.024874
0.223547 0.520463 0.074754
0.273141 0.520461 0.074749
0.223695 0.567879 0.074789
0.273358 0.567847 0.074786
0.223683 0.520233 0.124531
0.273310 0.520226 0.124522
0.223823 0.567521 0.124584
0.273513 0.567481 0.124579
0.223675 0.520222 0.174325
0.273302 0.520214 0.174314
0.223819 0.567494 0.174411
0.273509 0.567453 0.174405
0.223965 0.519667 0.223965
0.273665 0.519650 0.223950
0.224089 0.566631 0.224089
0.273840 0.566582 0.224081
0.223950 0.519650 0.273665
0.273648 0.519633 0.273648
0.224081 0.566582 0.273840
0.273832 0.566528 0.273832
0.224416 0.518480 0.323152
0.274242 0.518459 0.323132
0.224503 0.564783 0.323345
0.274359 0.564735 0.323335
0.224404 0.518410 0.373449
0.274227 0.518387 0.373435
0.224499 0.564631 0.373680
0.274353 0.564578 0.373675
0.222464 0.612115 0.024732
0.271794 0.611971 0.024723
0.222401 0.660577 0.024742
0.271720 0.660436 0.024733
0.222457 0.612093 0.074565
0.271787 0.611947 0.074550
0.222394 0.660555 0.074571
0.271713 0.660412 0.074556
0.222707 0.611444 0.124185
0.272095 0.611291 0.124158
0.222650 0.659820 0.124171
0.272027 0.659666 0.124143
0.222684 0.611368 0.173832
0.272070 0.611209 0.173796
0.222626 0.659740 0.173819
0.272002 0.659579 0.173784
0.223216 0.609806 0.223216
0.272729 0.609645 0.223168
0.223170 0.658003 0.223170
0.272674 0.657832 0.223121
0.223168 0.609645 0.272729
0.272677 0.609471 0.272677
0.223121 0.657832 0.272674
0.272621 0.657647 0.272621
0.224010 0.606405 0.321851
0.273735 0.606271 0.321792
0.223984 0.654402 0.321692
0.273703 0.654256 0.321630
0.223973 0.606019 0.372361
0.273690 0.605868 0.372318
0.223946 0.653971 0.372293
0.273657 0.653806 0.372249
0.222007 0.709419 0.024693
0.271238 0.709249 0.024680
0.221717 0.765284 0.024674
0.270811 0.765154 0.024659
0.221998 0.709394 0.074498
0.271229 0.709221 0.074477
0.221707 0.765267 0.074458
0.270800 0.765135 0.074434
0.222307 0.708636 0.124050
0.271604 0.708453 0.124013
0.222034 0.764796 0.123958
0.271209 0.764656 0.123912
0.222276 0.708546 0.173644
0.271572 0.708355 0.173596
0.221997 0.764733 0.173505
0.271168 0.764587 0.173446
0.222927 0.706818 0.222927
0.272370 0.706625 0.222864
0.222696 0.763721 0.222696
0.272044 0.763574 0.222616
0.222864 0.706625 0.272370
0.272300 0.706414 0.272300
0.222616 0.763574 0.272044
0.271957 0.763411 0.271957
0.223875 0.703550 0.321375
0.273561 0.703397 0.321299
0.223732 0.762160 0.320895
0.273367 0.762048 0.320794
0.223828 0.703098 0.371978
0.273505 0.702925 0.371924
0.223670 0.761831 0.371572
0.273296 0.761701 0.371500
0.322445 0.518937 0.024917
0.372866 0.518854 0.024914
0.322689 0.565515 0.024936
0.373175 0.565329 0.024936
0.322442 0.518934 0.074863
0.372864 0.518851 0.074859
0.322687 0.565509 0.074890
0.373174 0.565322 0.074888
0.322669 0.518807 0.124738
0.373050 0.518728 0.124731
0.322897 0.565306 0.124778
0.373334 0.565131 0.124775
0.322660 0.518797 0.174622
0.373044 0.518716 0.174612
0.322893 0.565283 0.174684
0.373332 0.565105 0.174681
0.323152 0.518480 0.224416
0.373449 0.518410 0.224404
0.323345 0.564783 0.224503
0.373680 0.564631 0.224499
0.323132 0.518459 0.274242
0.373435 0.518387 0.274227
0.323335 0.564735 0.274359
0.373675 0.564578 0.274353
0.323941 0.517739 0.323941
0.374108 0.517690 0.323926
0.324066 0.563620 0.324066
0.374249 0.563518 0.324061
0.323926 0.517690 0.374108
0.374096 0.517639 0.374096
0.324061 0.563518 0.374249
0.374246 0.563411 0.374246
0.320544 0.607769 0.024851
0.371280 0.607293 0.024842
0.320333 0.655927 0.024859
0.371192 0.655404 0.024851
0.320536 0.607751 0.074759
0.371275 0.607273 0.074746
0.320325 0.655908 0.074764
0.371186 0.655382 0.074752
0.320964 0.607382 0.124550
0.371627 0.606933 0.124528
0.320770 0.655487 0.124543
0.371544 0.654990 0.124521
0.320936 0.607318 0.174353
0.371606 0.606861 0.174323
0.320741 0.655419 0.174348
0.371524 0.654913 0.174318
0.321851 0.606405 0.224010
0.372361 0.606019 0.223973
0.321692 0.654402 0.223984
0.372293 0.653971 0.223946
0.321792 0.606271 0.273735
0.372318 0.605868 0.273690
0.321630 0.654256 0.273703
0.372249 0.653806 0.273657
0.323245 0.604251 0.323245
0.373526 0.603994 0.323205
0.323147 0.652153 0.323147
0.373483 0.651865 0.323105
0.323205 0.603994 0.373526
0.373492 0.603721 0.373492
0.323105 0.651865 0.373483
0.373448 0.651559 0.373448
0.319823 0.705057 0.024836
0.370711 0.704502 0.024826
0.319216 0.763056 0.024824
0.370168 0.762657 0.024812
0.319813 0.705037 0.074732
0.370703 0.704479 0.074715
0.319203 0.763043 0.074707
0.370159 0.762641 0.074687
0.320326 0.704610 0.124492
0.371119 0.704084 0.124464
0.319757 0.762777 0.124432
0.370619 0.762397 0.124396
0.320290 0.704539 0.174270
0.371093 0.704003 0.174232
0.319710 0.762729 0.174186
0.370585 0.762340 0.174137
0.321375 0.703550 0.223875
0.371978 0.703098 0.223828
0.320895 0.762160 0.223732
0.371572 0.761831 0.223670
0.321299 0.703397 0.273561
0.371924 0.702925 0.273505
0.320794 0.762048 0.273367
0.371500 0.761701 0.273296
0.322997 0.701602 0.322997
0.373326 0.701310 0.322947
0.322695 0.761321 0.322695
0.373086 0.761113 0.322624
0.322947 0.701310 0.373326
0.373284 0.700999 0.373284
0.322624 0.761113 0.373086
0.373029 0.760888 0.373029

CELL_TYPES 384
1
1
1
1
1
1
1
1
1
1
1
1
1
1
1
1
1
1
1
1
1
1
1
1
1
1
1
1
1
1
1
1
1
1
1
1
1
1
1
1
1
1
1
1
1
1
1
1
1
1
1
1
1
1
1
1
1
1
1
1
1
1
1
1
1
1
1
1
1
1
1
1
1
1
1
1
1
1
1
1
1
1
1
1
1
1
1
1
1
1
1
1
1
1
1
1
1
1
1
1
1
1
1
1
1
1
1
1
1
1
1
1
1
1
1
1
1
1
1
1
1
1
1
1
1
1
1
1
1
1
1
1
1
1
1
1
1
1
1
1
1
1
1
1
1
1
1
1
1
1
1
1
1
1
1
1
1
1
1
1
1
1
1
1
1
1
1
1
1
1
1
1
1
1
1
1
1
1
1
1
1
1
1
1
1
1
1
1
1
1
1
1
1
1
1
1
1
1
1
1
1
1
1
1
1
1
1
1
1
1
1
1
1
1
1
1
1
1
1
1
1
1
1
1
1
1
1
1
1
1
1
1
1
1
1
1
1
1
1
1
1
1
1
1
1
1
1
1
1
1
1
1
1
1
1
1
1
1
1
1
1
1
1
1
1
1
1
1
1
1
1
1
1
1
1
1
1
1
1
1
1
1
1
1
1
1
1
1
1
1
1
1
1
1
1
1
1
1
1
1
1
1
1
1
1
1
1
1
1
1
1
1
1
1
1
1
1
1
1
1
1
1
1
1
1
1
1
1
1
1
1
1
1
1
1
1
1
1
1
1
1
1
1
1
1
1
1
1
1
1
1
1
1
1
1
1
1
1
1
1
1
1
1
1
1
1
1
1
1
1
1
1
1
1
1
1
1
1
1
1
1
1
1
1

POINT_DATA 384
SCALARS radius float
LOOKUP_TABLE default
0.5
0.5
0.5
0.5
0.5
0.5
0.5
0.5
0.5
0.5
0.5
0.5
0.5
0.5
0.5
0.5
0.5
0.5
0.5
0.5
0.5
0.5
0.5
0.5
0.5
0.5
0.5
0.5
0.5
0.5
0.5
0.5
0.5
0.5
0.5
0.5
0.5
0.5
0.5
0.5
0.5
0.5
0.5
0.5
0.5
0.5
0.5
0.5
0.5
0.5
0.5
0.5
0.5
0.5
0.5
0.5
0.5
0.5
0.5
0.5
0.5
0.5
0.5
0.5
0.5
0.5
0.5
0.5
0.5
0.5
0.5
0.5
0.5
0.5
0.5
0.5
0.5
0.5
0.5
0.5
0.5
0.5
0.5
0.5
0.5
0.5
0.5
0.5
0.5
0.5
0.5
0.5
0.5
0.5
0.5
0.5
0.5
0.5
0.5
0.5
0.5
0.5
0.5
0.5
0.5
0.5
0.5
0.5
0.5
0.5
0.5
0.5
0.5
0.5
0.5
0.5
0.5
0.5
0.5
0.5
0.5
0.5
0.5
0.5
0.5
0.5
0.5
0.5
0.5
0.5
0.5
0.5
0.5
0.5
0.5
0.5
0.5
0.5
0.5
0.5
0.5
0.5
0.5
0.5
0.5
0.5
0.5
0.5
0.5
0.5
0.5
0.5
0.5
0.5
0.5
0.5
0.5
0.5
0.5
0.5
0.5
0.5
0.5
0.5
0.5
0.5
0.5
0.5
0.5
0.5
0.5
0.5
0.5
0.5
0.5
0.5
0.5
0.5
0.5
0.5
0.5
0.5
0.5
0.5
0.5
0.5
0.5
0.5
0.5
0.5
0.5
0.5
0.5
0.5
0.5
0.5
0.5
0.5
0.5
0.5
0.5
0.5
0.5
0.5
0.5
0.5
0.5
0.5
0.5
0.5
0.5
0.5
0.5
0.5
0.5
0.5
0.5
0.5
0.5
0.5
0.5
0.5
0.5
0.5
0.5
0.5
0.5
0.5
0.5
0.5
0.5
0.5
0.5
0.5
0.5
0.5
0.5
0.5
0.5
0.5
0.5
0.5
0.5
0.5
0.5
0.5
0.5
0.5
0.5
0.5
0.5
0.5
0.5
0.5
0.5
0.5
0.5
0.5
0.5
0.5
0.5
0.5
0.5
0.5
0.5
0.5
0.5
0.5
0.5
0.5
0.5
0.5
0.5
0.5
0.5
0.5
0.5
0.5
0.5
0.5
0.5
0.5
0.5
0.5
0.5
0.5
0.5
0.5
0.5
0.5
0.5
0.5
0.5
0.5
0.5
0.5
0.5
0.5
0.5
0.5
0.5
0.5
0.5
0.5
0.5
0.5
0.5
0.5
0.5
0.5
0.5
0.5
0.5
0.5
0.5
0.5
0.5
0.5
0.5
0.5
0.5
0.5
0.5
0.5
0.5
0.5
0.5
0.5
0.5
0.5
0.5
0.5
0.5
0.5
0.5
0.5
0.5
0.5
0.5
0.5
0.5
0.5
0.5
0.5
0.5
0.5
0.5
0.5
0.5
0.5
0.5
0.5
0.5
0.5
0.5
0.5
0.5
0.5
0.5
0.5
0.5
0.5
0.5
0.5
0.5
0.5
0.5
0.5
0.5
0.5
0.5
0.5
0.5
0.5
0.5
0.5
0.5
0.5
0.5
0.5
0.5
0.5
0.5
0.5
