# vtk DataFile Version 2.0
Title Data
ASCII
DATASET UNSTRUCTURED_GRID
POINTS 512 float
0.044955 0.096644 0.102385
0.016046 0.097987 0.029384
0.046762 0.045807 0.098363
0.127158 0.061597 0.074572
0.049959 0.001367 0.021587
0.099954 0.089779 0.100035
0.099971 0.068213 0.127185
0.056596 0.047730 0.042195
0.044345 0.063433 0.090890
0.090377 0.054149 0.047051
0.034405 0.039536 0.031560
0.098735 0.096147 0.027816
0.030862 0.067869 0.158368
0.121097 0.063155 0.164927
0.013790 0.001423 0.157630
0.066948 0.098062 0.153033
0.075413 0.095409 0.191346
0.039058 0.079163 0.195833
0.039031 0.054914 0.224371
0.040970 0.027425 0.191626
0.096820 0.005291 0.264753
0.057500 0.090369 0.259363
0.089155 0.058852 0.261137
0.057402 0.045218 0.263492
0.065282 0.026853 0.351875
0.087624 0.005660 0.355134
0.022875 0.051500 0.313633
0.071075 0.060536 0.331310
0.045450 0.099676 0.467430
0.005330 0.020178 0.459254
0.046372 0.067635 0.442693
0.002397 0.065688 0.452983
0.062107 0.089420 0.097317
0.014293 0.066758 0.026783
0.129401 0.038396 0.037911
0.053121 0.026218 0.092460
0.091393 0.075905 0.048982
0.097645 0.055285 0.064678
0.099940 0.013486 0.113561
0.099081 0.003581 0.097974
0.041293 0.008042 0.120072
0.129614 0.007762 0.010865
0.052657 0.083289 0.045346
0.127527 0.085094 0.098729
0.042960 0.032815 0.099956
0.057073 0.017000 0.139532
0.100023 0.053985 0.029092
0.133968 0.071244 0.129736
0.006482 0.051852 0.163343
0.059732 0.054566 0.169192
0.097781 0.032092 0.158813
0.129208 0.021686 0.189287
0.074590 0.045029 0.217962
0.101793 0.040456 0.221983
0.047766 0.094738 0.223939
0.124456 0.011997 0.228310
0.008308 0.089052 0.261938
0.086285 0.081106 0.264812
0.124773 0.036197 0.273216
0.097124 0.048765 0.287247
0.017647 0.073027 0.323671
0.080056 0.084013 0.357386
0.044521 0.022967 0.382001
0.095881 0.021482 0.393788
0.083054 0.083334 0.099051
0.051949 0.072112 0.123490
0.099929 0.019834 0.087517
0.062863 0.038123 0.128918
0.065934 0.084429 0.130940
0.094436 0.081984 0.006339
0.091308 0.008957 0.050876
0.104714 0.031650 0.048494
0.093123 0.045189 0.133119
0.058296 0.071975 0.079848
0.126457 0.094776 0.059642
0.099604 0.097789 0.131529
0.116702 0.052637 0.129505
0.038853 0.044112 0.125375
0.100328 0.091017 0.156522
0.073906 0.079475 0.161313
0.083473 0.089307 0.220565
0.054820 0.084974 0.169610
0.099824 0.005869 0.199965
0.099058 0.021824 0.193936
0.125304 0.079299 0.257069
0.045613 0.078439 0.243926
0.102286 0.027565 0.257268
0.071862 0.025323 0.253297
0.022749 0.004645 0.319207
0.053974 0.090436 0.319163
0.033448 0.023118 0.285849
0.053246 0.041161 0.308421
0.052523 0.091920 0.393932
0.016814 0.095225 0.422018
0.034605 0.032749 0.421314
0.100000 0.071076 0.399983
0.098809 0.096308 0.098233
0.025315 0.009392 0.058657
0.100002 0.036809 0.119534
0.078836 0.057964 0.085838
0.065914 0.006973 0.032973
0.079824 0.015796 0.131912
0.044045 0.043103 0.073423
0.000418 0.033212 0.005219
0.100048 0.036859 0.099915
0.064358 0.030866 0.054182
0.046037 0.088654 0.099496
0.055173 0.067923 0.011682
0.015617 0.035705 0.122555
0.045757 0.040828 0.158288
0.133538 0.089174 0.130990
0.128165 0.000163 0.132797
0.020452 0.053332 0.196647
0.099949 0.056741 0.199682
0.047655 0.002685 0.161430
0.100003 0.095735 0.199966
0.086958 0.058933 0.244142
0.099028 0.077211 0.233079
0.077004 0.009370 0.229688
0.006366 0.013620 0.246333
0.055692 0.065140 0.289436
0.100015 0.072913 0.299941
0.000591 0.013055 0.290818
0.097343 0.096854 0.305597
0.031108 0.067022 0.395277
0.083941 0.090304 0.386361
0.016052 0.030194 0.344631
0.098802 0.045938 0.356617
0.013931 0.073384 0.096943
0.167837 0.072930 0.092358
0.048165 0.013004 0.069687
0.184241 0.015573 0.134837
0.100067 0.059791 0.099883
0.174087 0.056617 0.129979
0.130833 0.016886 0.044142
0.143172 0.098989 0.057260
0.079113 0.090048 0.050476
0.135027 0.066375 0.057904
0.071671 0.003940 0.096442
0.159753 0.098546 0.087548
0.067239 0.061729 0.134289
0.138939 0.082423 0.146307
0.082114 0.026676 0.163384
0.138467 0.024533 0.141433
0.099710 0.084463 0.199559
0.160440 0.090294 0.198503
0.099965 0.044755 0.199952
0.147135 0.057153 0.200000
0.046986 0.011326 0.266731
0.131420 0.000678 0.267899
0.007931 0.061443 0.258650
0.131387 0.056964 0.270117
0.058195 0.019409 0.326314
0.134388 0.025328 0.335026
0.086846 0.076377 0.326251
0.130041 0.059049 0.351199
0.069804 0.033616 0.460480
0.116508 0.039626 0.462535
0.094434 0.093476 0.464220
0.113288 0.074924 0.436626
0.117252 0.012121 0.158043
0.165091 0.010010 0.120115
0.131239 0.074943 0.024799
0.135009 0.057312 0.026453
0.101174 0.012730 0.049716
0.127105 0.018829 0.091912
0.091276 0.075840 0.136799
0.170677 0.076689 0.127425
0.131731 0.030251 0.078348
0.138380 0.023540 0.122126
0.100159 0.093185 0.060251
0.007614 0.076903 0.057663
0.076821 0.034976 0.096035
0.081533 0.030601 0.011069
0.095149 0.000924 0.001322
0.032768 0.089660 0.072940
0.098654 0.074689 0.164949
0.089657 0.054696 0.163584
0.121252 0.039759 0.161057
0.138387 0.044766 0.176842
0.006338 0.076204 0.217370
0.100010 0.069752 0.199916
0.061476 0.025641 0.226170
0.023965 0.006303 0.224262
0.074548 0.098966 0.286967
0.135360 0.083074 0.280998
0.025199 0.047664 0.265645
0.099357 0.045923 0.300030
0.100229 0.068788 0.355804
0.037005 0.092229 0.356367
0.001121 0.040522 0.383169
0.000626 0.099663 0.378510
0.102313 0.038567 0.099930
0.126128 0.056633 0.104776
0.134739 0.088391 0.009323
0.165088 0.088444 0.117662
0.003803 0.051521 0.094189
0.163522 0.050316 0.058627
0.128327 0.083090 0.053009
0.171561 0.083882 0.003801
0.099990 0.073446 0.099930
0.137994 0.075539 0.096044
0.099973 0.091382 0.120215
0.129117 0.001068 0.098925
0.024192 0.073877 0.133085
0.138517 0.045236 0.131747
0.001521 0.005568 0.125589
0.063426 0.096839 0.073085
0.014846 0.087597 0.174072
0.135379 0.095130 0.179059
0.099976 0.027270 0.200037
0.144104 0.031331 0.196187
0.097712 0.095297 0.240458
0.006602 0.007999 0.196517
0.126657 0.041881 0.229071
0.061468 0.039083 0.186357
0.099901 0.003575 0.333026
0.128515 0.088610 0.322367
0.099958 0.026771 0.315507
0.109162 0.053589 0.309495
0.066852 0.097864 0.426887
0.113319 0.012298 0.419046
0.086426 0.028781 0.424970
0.132131 0.045650 0.400938
0.138259 0.042809 0.071799
0.156569 0.047723 0.100774
0.100736 0.088864 0.089520
0.165602 0.091288 0.034389
0.011128 0.036722 0.064206
0.164844 0.035714 0.096028
0.039241 0.067828 0.057699
0.173521 0.096748 0.129596
0.092238 0.081819 0.073576
0.129891 0.036757 0.008849
0.092045 0.028143 0.069008
0.137933 0.094678 0.094933
0.087536 0.053114 0.099528
0.079106 0.066680 0.029284
0.030986 0.090362 0.128980
0.011648 0.012545 0.094836
0.130675 0.077096 0.170633
0.131182 0.083302 0.194653
0.014043 0.029205 0.159465
0.099328 0.098430 0.163809
0.060915 0.074904 0.194235
0.062801 0.068246 0.223554
0.053215 0.009351 0.191427
0.030013 0.036150 0.228379
0.099258 0.084294 0.295238
0.040521 0.082222 0.288067
0.079840 0.026660 0.296124
0.120541 0.009252 0.299987
0.075388 0.058137 0.422118
0.116682 0.076498 0.392057
0.071804 0.050128 0.385442
0.044486 0.060204 0.355951
0.198500 0.064903 0.041701
0.270752 0.014809 0.058035
0.221593 0.062391 0.027330
0.269078 0.062669 0.060640
0.196804 0.094815 0.043625
0.259538 0.085440 0.018794
0.224753 0.029204 0.063699
0.273897 0.042719 0.041483
0.200270 0.093843 0.099310
0.263443 0.009219 0.105020
0.200018 0.042416 0.091834
0.271344 0.056573 0.107550
0.211840 0.091096 0.129888
0.279576 0.099252 0.132532
0.203413 0.052128 0.141130
0.270740 0.049546 0.133722
0.199876 0.072869 0.159023
0.252387 0.090930 0.143235
0.179843 0.044661 0.174032
0.249943 0.035358 0.144098
0.163714 0.094972 0.236978
0.232532 0.090771 0.175331
0.141928 0.037029 0.240454
0.232805 0.046850 0.176183
0.180040 0.021481 0.327011
0.261647 0.025691 0.321031
0.171016 0.058334 0.336566
0.248000 0.068388 0.327233
0.153920 0.019338 0.442096
0.241027 0.008211 0.408834
0.156236 0.070986 0.433652
0.068434 0.064932 0.489250
0.173557 0.060874 0.017371
0.231899 0.049906 0.059578
0.159199 0.023859 0.099120
0.229739 0.094209 0.053905
0.173573 0.051428 0.040518
0.237451 0.052886 0.096529
0.169188 0.020405 0.016579
0.232532 0.003785 0.084302
0.166212 0.079692 0.069497
0.214315 0.078851 0.005624
0.168555 0.030866 0.056429
0.210609 0.034240 0.013444
0.159305 0.060198 0.094942
0.227208 0.041376 0.103862
0.185527 0.038462 0.130170
0.215180 0.099189 0.096717
0.158187 0.048056 0.143339
0.224465 0.062341 0.127218
0.146513 0.097818 0.158158
0.217683 0.010198 0.122226
0.164425 0.069431 0.205459
0.199614 0.063555 0.199973
0.159429 0.007399 0.204121
0.180672 0.091223 0.168856
0.178135 0.096499 0.270743
0.200081 0.078060 0.297482
0.160672 0.037293 0.284293
0.187791 0.049485 0.294961
0.131138 0.088887 0.358149
0.205057 0.083334 0.341448
0.121986 0.018648 0.371721
0.197945 0.055385 0.370701
0.201394 0.085150 0.094217
0.261204 0.078097 0.096887
0.195940 0.009953 0.061519
0.265028 0.034611 0.080848
0.167058 0.084131 0.054946
0.256314 0.076954 0.115431
0.199624 0.036004 0.100011
0.254787 0.015911 0.011244
0.174042 0.091931 0.092497
0.246360 0.092887 0.093097
0.198961 0.036434 0.053426
0.256663 0.029248 0.098618
0.193656 0.090304 0.147381
0.234859 0.095384 0.029755
0.201780 0.028301 0.154315
0.230713 0.033679 0.126982
0.166658 0.078272 0.164654
0.243337 0.074030 0.139571
0.177242 0.019559 0.169549
0.225217 0.025068 0.162612
0.137529 0.079902 0.235172
0.185230 0.087452 0.233026
0.168419 0.028125 0.212969
0.200040 0.027094 0.199952
0.165663 0.094352 0.343610
0.229648 0.001547 0.306513
0.143764 0.047985 0.311920
0.209161 0.047940 0.312369
0.149948 0.001017 0.399677
0.193001 0.003677 0.381346
0.178906 0.040218 0.408582
0.238276 0.044566 0.380884
0.199979 0.055298 0.085629
0.245568 0.062638 0.040996
0.199998 0.003749 0.099945
0.238881 0.017589 0.055549
0.200038 0.064539 0.100022
0.242109 0.068651 0.084808
0.161416 0.009716 0.043887
0.237672 0.098283 0.125797
0.200647 0.072216 0.077815
0.205540 0.081773 0.054884
0.199984 0.023290 0.099937
0.199628 0.017986 0.022167
0.203851 0.074668 0.114126
0.236163 0.082698 0.072632
0.172991 0.012815 0.080253
0.241728 0.034496 0.022468
0.164951 0.058801 0.167056
0.221324 0.067477 0.162045
0.160494 0.014618 0.163581
0.219567 0.001146 0.162778
0.122031 0.065422 0.213442
0.200028 0.047031 0.198627
0.129976 0.095496 0.222470
0.199985 0.008645 0.199459
0.147989 0.074950 0.309506
0.188821 0.085578 0.303654
0.158287 0.009240 0.301048
0.200019 0.015358 0.295215
0.161388 0.072472 0.380351
0.236100 0.088512 0.369188
0.160587 0.030168 0.366499
0.218833 0.023992 0.345708
0.356479 0.020621 0.038768
0.471711 0.093333 0.041279
0.339016 0.057750 0.042628
0.453352 0.062680 0.055989
0.361273 0.099428 0.057293
0.466572 0.020107 0.004866
0.335682 0.063309 0.089149
0.455701 0.066240 0.007526
0.340650 0.024520 0.089480
0.477887 0.029132 0.060641
0.336638 0.079348 0.078872
0.464868 0.092108 0.090356
0.340341 0.026308 0.134230
0.473498 0.035834 0.112130
0.354226 0.058393 0.129731
0.431726 0.084698 0.116069
0.335179 0.018349 0.181792
0.447731 0.013636 0.144782
0.345102 0.055876 0.170620
0.498180 0.069713 0.073339
0.335611 0.023719 0.252279
0.449354 0.096237 0.188485
0.337328 0.072735 0.245518
0.457851 0.069285 0.143280
0.220119 0.081455 0.220154
0.267674 0.007388 0.227158
0.210899 0.052446 0.219792
0.283430 0.056476 0.216373
0.226398 0.095197 0.265698
0.268373 0.004951 0.278540
0.235656 0.045277 0.284005
0.274705 0.058576 0.285606
0.275275 0.094498 0.086690
0.346287 0.076176 0.015854
0.295953 0.024402 0.048682
0.400483 0.035143 0.054958
0.271135 0.088001 0.051429
0.363202 0.092019 0.100775
0.296547 0.035033 0.099953
0.399578 0.015373 0.093155
0.297260 0.089638 0.044568
0.370545 0.068771 0.097257
0.278868 0.054524 0.012930
0.379173 0.028500 0.088793
0.292727 0.084173 0.123228
0.382732 0.088718 0.022375
0.299963 0.052030 0.095830
0.390902 0.016801 0.011584
0.290413 0.090358 0.162936
0.373051 0.092304 0.126860
0.294012 0.062107 0.143653
0.378013 0.030213 0.127580
0.299994 0.089329 0.200028
0.353770 0.081817 0.201350
0.300010 0.054170 0.192630
0.391636 0.056985 0.199819
0.171553 0.060449 0.230099
0.262999 0.054043 0.176469
0.185208 0.028970 0.230202
0.271442 0.023109 0.143412
0.165178 0.056165 0.252006
0.254575 0.044561 0.217188
0.157450 0.015742 0.256482
0.226790 0.002838 0.220398
0.323252 0.002556 0.012919
0.397982 0.095436 0.069447
0.315802 0.039001 0.099607
0.430291 0.033275 0.028180
0.325102 0.093143 0.050549
0.426599 0.095995 0.099453
0.317913 0.038885 0.041293
0.404327 0.057671 0.099960
0.343912 0.100000 0.097186
0.433485 0.003098 0.055127
0.328941 0.030767 0.068370
0.443096 0.035207 0.085983
0.323909 0.094994 0.127821
0.410684 0.017163 0.099976
0.315725 0.048806 0.116682
0.421392 0.045301 0.135658
0.355532 0.096461 0.160186
0.404697 0.002532 0.143237
0.307403 0.043872 0.157647
0.417105 0.042247 0.177503
0.313051 0.002381 0.218007
0.395553 0.000754 0.187847
0.324943 0.048306 0.212489
0.461980 0.042937 0.180807
0.200015 0.080410 0.199530
0.269649 0.073836 0.167812
0.229319 0.025060 0.204266
0.270409 0.024300 0.179396
0.167514 0.075533 0.269710
0.291611 0.081545 0.248291
0.199998 0.038153 0.261234
0.290730 0.033529 0.249831
0.303289 0.071059 0.019232
0.418545 0.075335 0.033672
0.287244 0.009813 0.007028
0.353301 0.039299 0.100423
0.299381 0.061254 0.064597
0.396808 0.078161 0.070708
0.311310 0.097037 0.085836
0.364872 0.043873 0.079519
0.299970 0.075759 0.100002
0.421674 0.060799 0.083230
0.299728 0.012400 0.095765
0.383569 0.051201 0.027272
0.294772 0.082671 0.082892
0.399726 0.063882 0.113981
0.300015 0.025008 0.111381
0.370608 0.067682 0.055156
0.330563 0.077716 0.135432
0.386708 0.071309 0.156838
0.309294 0.014698 0.155176
0.374454 0.031895 0.164769
0.319526 0.080766 0.177004
0.384198 0.087670 0.232492
0.300000 0.020929 0.199965
0.363521 0.025840 0.212883
0.238110 0.071471 0.197250
0.264801 0.085559 0.207524
0.199979 0.094668 0.199862
0.257439 0.005005 0.183381
0.208705 0.067955 0.256410
0.250123 0.071853 0.247709
0.202601 0.012081 0.244913
0.242436 0.031025 0.250521

CELL_TYPES 512
1
1
1
1
1
1
1
1
1
1
1
1
1
1
1
1
1
1
1
1
1
1
1
1
1
1
1
1
1
1
1
1
1
1
1
1
1
1
1
1
1
1
1
1
1
1
1
1
1
1
1
1
1
1
1
1
1
1
1
1
1
1
1
1
1
1
1
1
1
1
1
1
1
1
1
1
1
1
1
1
1
1
1
1
1
1
1
1
1
1
1
1
1
1
1
1
1
1
1
1
1
1
1
1
1
1
1
1
1
1
1
1
1
1
1
1
1
1
1
1
1
1
1
1
1
1
1
1
1
1
1
1
1
1
1
1
1
1
1
1
1
1
1
1
1
1
1
1
1
1
1
1
1
1
1
1
1
1
1
1
1
1
1
1
1
1
1
1
1
1
1
1
1
1
1
1
1
1
1
1
1
1
1
1
1
1
1
1
1
1
1
1
1
1
1
1
1
1
1
1
1
1
1
1
1
1
1
1
1
1
1
1
1
1
1
1
1
1
1
1
1
1
1
1
1
1
1
1
1
1
1
1
1
1
1
1
1
1
1
1
1
1
1
1
1
1
1
1
1
1
1
1
1
1
1
1
1
1
1
1
1
1
1
1
1
1
1
1
1
1
1
1
1
1
1
1
1
1
1
1
1
1
1
1
1
1
1
1
1
1
1
1
1
1
1
1
1
1
1
1
1
1
1
1
1
1
1
1
1
1
1
1
1
1
1
1
1
1
1
1
1
1
1
1
1
1
1
1
1
1
1
1
1
1
1
1
1
1
1
1
1
1
1
1
1
1
1
1
1
1
1
1
1
1
1
1
1
1
1
1
1
1
1
1
1
1
1
1
1
1
1
1
1
1
1
1
1
1
1
1
1
1
1
1
1
1
1
1
1
1
1
1
1
1
1
1
1
1
1
1
1
1
1
1
1
1
1
1
1
1
1
1
1
1
1
1
1
1
1
1
1
1
1
1
1
1
1
1
1
1
1
1
1
1
1
1
1
1
1
1
1
1
1
1
1
1
1
1
1
1
1
1
1
1
1
1
1
1
1
1
1
1
1
1
1
1
1
1
1
1
1
1
1
1
1
1
1
1
1
1
1
1
1
1
1
1
1
1
1
1
1
1
1
1
1
1
1
1
1
1
1
1
1
1
1
1
1
1
1
1
1
1

POINT_DATA 512
SCALARS radius float
LOOKUP_TABLE default
0.5
0.5
0.5
0.5
0.5
0.5
0.5
0.5
0.5
0.5
0.5
0.5
0.5
0.5
0.5
0.5
0.5
0.5
0.5
0.5
0.5
0.5
0.5
0.5
0.5
0.5
0.5
0.5
0.5
0.5
0.5
0.5
0.5
0.5
0.5
0.5
0.5
0.5
0.5
0.5
0.5
0.5
0.5
0.5
0.5
0.5
0.5
0.5
0.5
0.5
0.5
0.5
0.5
0.5
0.5
0.5
0.5
0.5
0.5
0.5
0.5
0.5
0.5
0.5
0.5
0.5
0.5
0.5
0.5
0.5
0.5
0.5
0.5
0.5
0.5
0.5
0.5
0.5
0.5
0.5
0.5
0.5
0.5
0.5
0.5
0.5
0.5
0.5
0.5
0.5
0.5
0.5
0.5
0.5
0.5
0.5
0.5
0.5
0.5
0.5
0.5
0.5
0.5
0.5
0.5
0.5
0.5
0.5
0.5
0.5
0.5
0.5
0.5
0.5
0.5
0.5
0.5
0.5
0.5
0.5
0.5
0.5
0.5
0.5
0.5
0.5
0.5
0.5
0.5
0.5
0.5
0.5
0.5
0.5
0.5
0.5
0.5
0.5
0.5
0.5
0.5
0.5
0.5
0.5
0.5
0.5
0.5
0.5
0.5
0.5
0.5
0.5
0.5
0.5
0.5
0.5
0.5
0.5
0.5
0.5
0.5
0.5
0.5
0.5
0.5
0.5
0.5
0.5
0.5
0.5
0.5
0.5
0.5
0.5
0.5
0.5
0.5
0.5
0.5
0.5
0.5
0.5
0.5
0.5
0.5
0.5
0.5
0.5
0.5
0.5
0.5
0.5
0.5
0.5
0.5
0.5
0.5
0.5
0.5
0.5
0.5
0.5
0.5
0.5
0.5
0.5
0.5
0.5
0.5
0.5
0.5
0.5
0.5
0.5
0.5
0.5
0.5
0.5
0.5
0.5
0.5
0.5
0.5
0.5
0.5
0.5
0.5
0.5
0.5
0.5
0.5
0.5
0.5
0.5
0.5
0.5
0.5
0.5
0.5
0.5
0.5
0.5
0.5
0.5
0.5
0.5
0.5
0.5
0.5
0.5
0.5
0.5
0.5
0.5
0.5
0.5
0.5
0.5
0.5
0.5
0.5
0.5
0.5
0.5
0.5
0.5
0.5
0.5
0.5
0.5
0.5
0.5
0.5
0.5
0.5
0.5
0.5
0.5
0.5
0.5
0.5
0.5
0.5
0.5
0.5
0.5
0.5
0.5
0.5
0.5
0.5
0.5
0.5
0.5
0.5
0.5
0.5
0.5
0.5
0.5
0.5
0.5
0.5
0.5
0.5
0.5
0.5
0.5
0.5
0.5
0.5
0.5
0.5
0.5
0.5
0.5
0.5
0.5
0.5
0.5
0.5
0.5
0.5
0.5
0.5
0.5
0.5
0.5
0.5
0.5
0.5
0.5
0.5
0.5
0.5
0.5
0.5
0.5
0.5
0.5
0.5
0.5
0.5
0.5
0.5
0.5
0.5
0.5
0.5
0.5
0.5
0.5
0.5
0.5
0.5
0.5
0.5
0.5
0.5
0.5
0.5
0.5
0.5
0.5
0.5
0.5
0.5
0.5
0.5
0.5
0.5
0.5
0.5
0.5
0.5
0.5
0.5
0.5
0.5
0.5
0.5
0.5
0.5
0.5
0.5
0.5
0.5
0.5
0.5
0.5
0.5
0.5
0.5
0.5
0.5
0.5
0.5
0.5
0.5
0.5
0.5
0.5
0.5
0.5
0.5
0.5
0.5
0.5
0.5
0.5
0.5
0.5
0.5
0.5
0.5
0.5
0.5
0.5
0.5
0.5
0.5
0.5
0.5
0.5
0.5
0.5
0.5
0.5
0.5
0.5
0.5
0.5
0.5
0.5
0.5
0.5
0.5
0.5
0.5
0.5
0.5
0.5
0.5
0.5
0.5
0.5
0.5
0.5
0.5
0.5
0.5
0.5
0.5
0.5
0.5
0.5
0.5
0.5
0.5
0.5
0.5
0.5
0.5
0.5
0.5
0.5
0.5
0.5
0.5
0.5
0.5
0.5
0.5
0.5
0.5
0.5
0.5
0.5
0.5
0.5
0.5
0.5
0.5
0.5
0.5
0.5
0.5
0.5
0.5
0.5
0.5
0.5
0.5
0.5
0.5
0.5
0.5
0.5
0.5
0.5
0.5
0.5
0.5
0.5
0.5
0.5
0.5
0.5
0.5
0.5
0.5
0.5
