# vtk DataFile Version 2.0
Title Data
ASCII
DATASET UNSTRUCTURED_GRID
POINTS 384 float
0.005178 0.464854 0.005178
0.059489 0.459461 0.006273
0.033027 0.488184 0.033028
0.089029 0.489938 0.026352
0.006272 0.459461 0.059490
0.059603 0.457472 0.059602
0.026368 0.489921 0.089030
0.096122 0.499770 0.096113
0.001576 0.452846 0.109294
0.058112 0.449746 0.107148
0.030028 0.481219 0.136958
0.081552 0.475808 0.133843
0.001513 0.453251 0.159594
0.057360 0.448959 0.159017
0.016093 0.488862 0.189682
0.090414 0.499468 0.189655
0.003563 0.445508 0.208181
0.054759 0.443817 0.205090
0.022957 0.477511 0.237756
0.081850 0.466445 0.232243
0.098424 0.447017 0.258789
0.052537 0.443451 0.260244
0.016520 0.480917 0.287000
0.088097 0.470904 0.296612
0.006256 0.439265 0.309463
0.058577 0.439567 0.308593
0.033377 0.468265 0.339786
0.086002 0.461678 0.343892
0.008934 0.441978 0.371123
0.058139 0.436998 0.370950
0.033142 0.493447 0.407156
0.087797 0.496970 0.410302
0.010791 0.513730 0.010791
0.059767 0.504402 0.004660
0.016349 0.635824 0.016353
0.065936 0.635116 0.015528
0.004661 0.504401 0.059770
0.061675 0.499792 0.061641
0.015526 0.635113 0.065957
0.065074 0.634138 0.065095
0.099946 0.499684 0.109135
0.056430 0.499588 0.106604
0.017631 0.622611 0.113777
0.067092 0.620917 0.112675
0.094832 0.499629 0.156053
0.053120 0.499539 0.164825
0.015309 0.623286 0.162851
0.064494 0.619041 0.161604
0.099653 0.499707 0.226184
0.054205 0.499691 0.212857
0.020070 0.604961 0.206912
0.069757 0.603680 0.206430
0.092868 0.499707 0.267218
0.052336 0.499640 0.263642
0.016719 0.599857 0.255918
0.066135 0.597972 0.254590
0.099953 0.499860 0.329005
0.053516 0.499877 0.313067
0.022969 0.576225 0.298991
0.072903 0.573783 0.298843
0.005082 0.499892 0.365674
0.062394 0.499791 0.367190
0.021690 0.552107 0.348883
0.071428 0.547554 0.347816
0.023314 0.684504 0.023314
0.072962 0.683328 0.024651
0.009433 0.727590 0.009428
0.058141 0.723748 0.005786
0.024650 0.683331 0.072957
0.074230 0.682250 0.074234
0.005788 0.723742 0.058132
0.053989 0.717283 0.053987
0.022863 0.673393 0.120440
0.072129 0.671431 0.120539
0.012733 0.719460 0.105701
0.061653 0.715740 0.101840
0.025524 0.672342 0.168359
0.074980 0.668316 0.167459
0.004621 0.715332 0.153851
0.053437 0.707891 0.149552
0.021445 0.655320 0.212551
0.070832 0.655263 0.212720
0.017215 0.702764 0.199988
0.066908 0.701206 0.199971
0.025736 0.652538 0.260821
0.074567 0.650860 0.261011
0.007773 0.698549 0.247730
0.056838 0.696770 0.244943
0.021907 0.624255 0.299951
0.071589 0.621874 0.299930
0.022130 0.696709 0.296028
0.071736 0.696544 0.295302
0.021432 0.601252 0.347532
0.071021 0.598874 0.347319
0.018948 0.678404 0.341506
0.068509 0.675804 0.339791
0.109287 0.452841 0.001577
0.159595 0.453253 0.001510
0.136981 0.481199 0.030035
0.189703 0.488865 0.016124
0.107154 0.449752 0.058117
0.159020 0.448959 0.057365
0.133876 0.475827 0.081555
0.189751 0.499371 0.090295
0.107998 0.445788 0.107988
0.158796 0.444497 0.105632
0.135927 0.469246 0.135920
0.184765 0.468087 0.137815
0.105628 0.444495 0.158792
0.157335 0.435522 0.157319
0.137840 0.468048 0.184744
0.199975 0.499737 0.199924
0.108841 0.435774 0.206001
0.164394 0.436041 0.205356
0.137010 0.462352 0.233216
0.186878 0.466422 0.236005
0.110375 0.432132 0.262563
0.161950 0.429113 0.256989
0.141272 0.463497 0.282200
0.200063 0.494576 0.297332
0.111706 0.436279 0.310715
0.167377 0.438593 0.311815
0.136246 0.468439 0.339608
0.189481 0.470540 0.342221
0.115814 0.440014 0.374704
0.164276 0.439210 0.368486
0.138308 0.490832 0.414771
0.189121 0.496971 0.411798
0.109304 0.499759 0.099949
0.156303 0.499929 0.094863
0.113823 0.622990 0.017634
0.162899 0.623637 0.015297
0.106783 0.499998 0.056412
0.164957 0.499974 0.053150
0.112729 0.621311 0.067117
0.161668 0.619500 0.064505
0.105009 0.499772 0.104967
0.152431 0.499878 0.122748
0.114830 0.611781 0.114826
0.163435 0.611806 0.112196
0.122861 0.499868 0.152426
0.166537 0.499916 0.166458
0.112252 0.611766 0.163568
0.160471 0.606013 0.160460
0.116314 0.499977 0.199910
0.159258 0.499999 0.213931
0.118924 0.600046 0.209456
0.168817 0.599900 0.207107
0.132073 0.499849 0.252076
0.170248 0.499966 0.265299
0.114677 0.598532 0.258341
0.162617 0.597128 0.255569
0.124910 0.499770 0.299899
0.164463 0.499754 0.316897
0.121814 0.572653 0.304369
0.171237 0.571254 0.298705
0.111715 0.499928 0.374858
0.161211 0.499694 0.370738
0.120419 0.552425 0.355761
0.169741 0.545113 0.353764
0.120539 0.673457 0.022925
0.168499 0.672369 0.025527
0.105664 0.719099 0.012686
0.153775 0.714859 0.004526
0.120579 0.671411 0.072223
0.167576 0.668510 0.075045
0.101806 0.715288 0.061604
0.149510 0.707458 0.053376
0.119735 0.665317 0.119721
0.167728 0.665468 0.121404
0.109545 0.715619 0.109515
0.157894 0.712356 0.101418
0.121479 0.665445 0.167689
0.167856 0.658206 0.167750
0.101487 0.712334 0.157893
0.149891 0.702614 0.149851
0.119315 0.650256 0.212862
0.168201 0.653028 0.214141
0.114677 0.699755 0.201940
0.164543 0.699644 0.198878
0.122296 0.650542 0.261316
0.170155 0.649854 0.262336
0.104711 0.698206 0.250661
0.152708 0.695829 0.244214
0.120481 0.620762 0.299912
0.169909 0.618585 0.299894
0.120895 0.695412 0.297455
0.169943 0.696110 0.294852
0.119827 0.601657 0.349292
0.168934 0.598262 0.348089
0.117510 0.679994 0.343751
0.166516 0.675724 0.339376
0.208174 0.445504 0.003559
0.258776 0.446989 0.098422
0.237774 0.477490 0.022925
0.287030 0.480926 0.016541
0.205089 0.443807 0.054759
0.260231 0.443454 0.052540
0.232231 0.466432 0.081868
0.296527 0.470716 0.088270
0.205999 0.435772 0.108850
0.262559 0.432158 0.110402
0.233234 0.462366 0.136996
0.282252 0.463543 0.141293
0.205359 0.436049 0.164383
0.257012 0.429127 0.161935
0.236013 0.466415 0.186873
0.297319 0.494742 0.200085
0.211479 0.431697 0.211477
0.264811 0.433376 0.209288
0.236781 0.462168 0.236777
0.285389 0.466419 0.237606
0.209292 0.433383 0.264812
0.263397 0.430516 0.263370
0.237652 0.466398 0.285371
0.299971 0.487502 0.299879
0.215624 0.435142 0.315362
0.268301 0.440068 0.312321
0.237707 0.470273 0.342398
0.287347 0.472659 0.343642
0.213518 0.442092 0.374055
0.263201 0.439662 0.370374
0.237758 0.487549 0.416433
0.292766 0.494919 0.411547
0.226296 0.499837 0.099763
0.267477 0.499810 0.092902
0.206917 0.605031 0.020064
0.255949 0.599906 0.016706
0.213097 0.499890 0.054221
0.263609 0.499637 0.052318
0.206449 0.603753 0.069750
0.254628 0.598038 0.066118
0.200138 0.499942 0.116199
0.252285 0.499597 0.132057
0.209010 0.600438 0.118975
0.257057 0.599092 0.114410
0.214031 0.499721 0.159194
0.265294 0.499862 0.170277
0.207214 0.600335 0.168830
0.255754 0.597184 0.162550
0.208862 0.499951 0.208816
0.255024 0.499990 0.217035
0.210225 0.587036 0.210212
0.259774 0.586936 0.207635
0.217035 0.499990 0.255029
0.264539 0.499900 0.264524
0.207707 0.586924 0.259771
0.256130 0.581783 0.256079
0.214026 0.499755 0.312711
0.259441 0.499695 0.312713
0.218885 0.561256 0.300041
0.267360 0.558809 0.300003
0.210917 0.499969 0.375821
0.260401 0.499340 0.374784
0.219247 0.542822 0.348658
0.268183 0.531672 0.343715
0.212628 0.655370 0.021446
0.260886 0.652554 0.025748
0.200009 0.702702 0.017205
0.247734 0.698501 0.007744
0.212774 0.655249 0.070832
0.261046 0.650888 0.074568
0.199967 0.701257 0.066881
0.245050 0.696800 0.056814
0.213083 0.650535 0.119336
0.261796 0.650528 0.122265
0.201966 0.699709 0.114592
0.250694 0.698302 0.104712
0.214275 0.653564 0.168236
0.262496 0.650135 0.170158
0.199198 0.699823 0.164442
0.243942 0.695962 0.152739
0.212678 0.634631 0.212606
0.261829 0.633833 0.214540
0.206325 0.694949 0.206278
0.255079 0.694042 0.199943
0.214581 0.633831 0.261795
0.262846 0.629429 0.262828
0.199995 0.694005 0.255015
0.248708 0.685070 0.248673
0.218179 0.608659 0.303995
0.268074 0.603971 0.303981
0.215644 0.685396 0.299968
0.263887 0.686901 0.297916
0.217471 0.597748 0.355076
0.266532 0.593292 0.352515
0.214851 0.678098 0.348865
0.263649 0.671114 0.343898
0.309463 0.439270 0.006258
0.371098 0.441999 0.008947
0.339742 0.468329 0.033379
0.407137 0.493451 0.033156
0.308580 0.439516 0.058471
0.370975 0.437016 0.058147
0.343799 0.461599 0.085976
0.410302 0.496970 0.087796
0.310683 0.436235 0.111747
0.374696 0.440039 0.115797
0.339577 0.468408 0.136268
0.414859 0.490811 0.138385
0.311814 0.438587 0.167378
0.368502 0.439194 0.164269
0.342222 0.470535 0.189440
0.411800 0.496972 0.189117
0.315380 0.435142 0.215623
0.374062 0.442082 0.213508
0.342451 0.470286 0.237708
0.416430 0.487547 0.237756
0.312317 0.440085 0.268294
0.370386 0.439647 0.263200
0.343660 0.472677 0.287333
0.411552 0.494916 0.292770
0.317488 0.442356 0.317481
0.372041 0.445547 0.317156
0.339875 0.478353 0.339875
0.413833 0.484306 0.344057
0.317153 0.445549 0.372034
0.366096 0.444071 0.366100
0.344056 0.484309 0.413827
0.400050 0.494167 0.400050
0.329332 0.499756 0.099879
0.365682 0.499884 0.005073
0.299109 0.576242 0.022765
0.348394 0.552132 0.021687
0.312923 0.499762 0.053677
0.367168 0.499738 0.062418
0.299043 0.573813 0.072460
0.347295 0.547586 0.071429
0.299899 0.499817 0.124612
0.375027 0.499949 0.111707
0.299627 0.574416 0.121925
0.355784 0.552085 0.120337
0.316775 0.499714 0.164417
0.370754 0.499698 0.161191
0.298853 0.571154 0.171367
0.353765 0.544947 0.169680
0.312814 0.499925 0.213998
0.375821 0.499722 0.210909
0.300032 0.561291 0.218838
0.348657 0.542851 0.219116
0.312726 0.499730 0.259480
0.374806 0.499535 0.260398
0.299993 0.558764 0.267302
0.343690 0.531715 0.268124
0.308725 0.498353 0.308714
0.382220 0.492032 0.309040
0.314637 0.538676 0.314733
0.362220 0.526860 0.313555
0.309041 0.492022 0.382219
0.380927 0.486849 0.380922
0.313475 0.526860 0.362289
0.359040 0.510397 0.359109
0.299901 0.624176 0.021916
0.347542 0.601345 0.021423
0.296041 0.696722 0.022111
0.341519 0.678455 0.018947
0.299988 0.621919 0.071635
0.347353 0.598919 0.071012
0.295287 0.696495 0.071711
0.339807 0.675875 0.068515
0.299907 0.619502 0.120496
0.349312 0.600847 0.119862
0.297511 0.695481 0.120870
0.343729 0.679511 0.117579
0.299976 0.618594 0.169987
0.348275 0.597980 0.168923
0.294948 0.696118 0.169998
0.339347 0.675161 0.166592
0.304026 0.608630 0.218278
0.355081 0.597730 0.217447
0.299973 0.685427 0.215656
0.348888 0.678085 0.214945
0.304028 0.604034 0.268145
0.352528 0.593340 0.266507
0.297912 0.686932 0.263913
0.343887 0.671086 0.263704
0.314147 0.595622 0.314173
0.365392 0.589444 0.314214
0.311259 0.677358 0.311148
0.363128 0.672551 0.309038
0.314151 0.589438 0.365433
0.363799 0.578546 0.363858
0.309113 0.672544 0.363040
0.359005 0.662029 0.358912

CELL_TYPES 384
1
1
1
1
1
1
1
1
1
1
1
1
1
1
1
1
1
1
1
1
1
1
1
1
1
1
1
1
1
1
1
1
1
1
1
1
1
1
1
1
1
1
1
1
1
1
1
1
1
1
1
1
1
1
1
1
1
1
1
1
1
1
1
1
1
1
1
1
1
1
1
1
1
1
1
1
1
1
1
1
1
1
1
1
1
1
1
1
1
1
1
1
1
1
1
1
1
1
1
1
1
1
1
1
1
1
1
1
1
1
1
1
1
1
1
1
1
1
1
1
1
1
1
1
1
1
1
1
1
1
1
1
1
1
1
1
1
1
1
1
1
1
1
1
1
1
1
1
1
1
1
1
1
1
1
1
1
1
1
1
1
1
1
1
1
1
1
1
1
1
1
1
1
1
1
1
1
1
1
1
1
1
1
1
1
1
1
1
1
1
1
1
1
1
1
1
1
1
1
1
1
1
1
1
1
1
1
1
1
1
1
1
1
1
1
1
1
1
1
1
1
1
1
1
1
1
1
1
1
1
1
1
1
1
1
1
1
1
1
1
1
1
1
1
1
1
1
1
1
1
1
1
1
1
1
1
1
1
1
1
1
1
1
1
1
1
1
1
1
1
1
1
1
1
1
1
1
1
1
1
1
1
1
1
1
1
1
1
1
1
1
1
1
1
1
1
1
1
1
1
1
1
1
1
1
1
1
1
1
1
1
1
1
1
1
1
1
1
1
1
1
1
1
1
1
1
1
1
1
1
1
1
1
1
1
1
1
1
1
1
1
1
1
1
1
1
1
1
1
1
1
1
1
1
1
1
1
1
1
1
1
1
1
1
1
1
1
1
1
1
1
1
1
1
1
1
1
1
1
1
1
1
1
1

POINT_DATA 384
SCALARS radius float
LOOKUP_TABLE default
0.5
0.5
0.5
0.5
0.5
0.5
0.5
0.5
0.5
0.5
0.5
0.5
0.5
0.5
0.5
0.5
0.5
0.5
0.5
0.5
0.5
0.5
0.5
0.5
0.5
0.5
0.5
0.5
0.5
0.5
0.5
0.5
0.5
0.5
0.5
0.5
0.5
0.5
0.5
0.5
0.5
0.5
0.5
0.5
0.5
0.5
0.5
0.5
0.5
0.5
0.5
0.5
0.5
0.5
0.5
0.5
0.5
0.5
0.5
0.5
0.5
0.5
0.5
0.5
0.5
0.5
0.5
0.5
0.5
0.5
0.5
0.5
0.5
0.5
0.5
0.5
0.5
0.5
0.5
0.5
0.5
0.5
0.5
0.5
0.5
0.5
0.5
0.5
0.5
0.5
0.5
0.5
0.5
0.5
0.5
0.5
0.5
0.5
0.5
0.5
0.5
0.5
0.5
0.5
0.5
0.5
0.5
0.5
0.5
0.5
0.5
0.5
0.5
0.5
0.5
0.5
0.5
0.5
0.5
0.5
0.5
0.5
0.5
0.5
0.5
0.5
0.5
0.5
0.5
0.5
0.5
0.5
0.5
0.5
0.5
0.5
0.5
0.5
0.5
0.5
0.5
0.5
0.5
0.5
0.5
0.5
0.5
0.5
0.5
0.5
0.5
0.5
0.5
0.5
0.5
0.5
0.5
0.5
0.5
0.5
0.5
0.5
0.5
0.5
0.5
0.5
0.5
0.5
0.5
0.5
0.5
0.5
0.5
0.5
0.5
0.5
0.5
0.5
0.5
0.5
0.5
0.5
0.5
0.5
0.5
0.5
0.5
0.5
0.5
0.5
0.5
0.5
0.5
0.5
0.5
0.5
0.5
0.5
0.5
0.5
0.5
0.5
0.5
0.5
0.5
0.5
0.5
0.5
0.5
0.5
0.5
0.5
0.5
0.5
0.5
0.5
0.5
0.5
0.5
0.5
0.5
0.5
0.5
0.5
0.5
0.5
0.5
0.5
0.5
0.5
0.5
0.5
0.5
0.5
0.5
0.5
0.5
0.5
0.5
0.5
0.5
0.5
0.5
0.5
0.5
0.5
0.5
0.5
0.5
0.5
0.5
0.5
0.5
0.5
0.5
0.5
0.5
0.5
0.5
0.5
0.5
0.5
0.5
0.5
0.5
0.5
0.5
0.5
0.5
0.5
0.5
0.5
0.5
0.5
0.5
0.5
0.5
0.5
0.5
0.5
0.5
0.5
0.5
0.5
0.5
0.5
0.5
0.5
0.5
0.5
0.5
0.5
0.5
0.5
0.5
0.5
0.5
0.5
0.5
0.5
0.5
0.5
0.5
0.5
0.5
0.5
0.5
0.5
0.5
0.5
0.5
0.5
0.5
0.5
0.5
0.5
0.5
0.5
0.5
0.5
0.5
0.5
0.5
0.5
0.5
0.5
0.5
0.5
0.5
0.5
0.5
0.5
0.5
0.5
0.5
0.5
0.5
0.5
0.5
0.5
0.5
0.5
0.5
0.5
0.5
0.5
0.5
0.5
0.5
0.5
0.5
0.5
0.5
0.5
0.5
0.5
0.5
0.5
0.5
0.5
0.5
0.5
0.5
0.5
0.5
0.5
0.5
0.5
0.5
0.5
0.5
0.5
0.5
0.5
0.5
0.5
0.5
0.5
0.5
0.5
0.5
0.5
0.5
0.5
