# vtk DataFile Version 2.0
Title Data
ASCII
DATASET UNSTRUCTURED_GRID
POINTS 512 float
0.101882 0.096530 0.063341
0.099994 0.089082 0.099918
0.101919 0.038182 0.072937
0.130716 0.054512 0.027006
0.001014 0.099098 0.096261
0.081246 0.082373 0.072446
0.077136 0.060624 0.137191
0.018577 0.039532 0.096884
0.105292 0.051219 0.054040
0.062155 0.043893 0.099966
0.099438 0.020337 0.099714
0.078073 0.094060 0.097572
0.103273 0.064092 0.153808
0.127633 0.055174 0.161240
0.107212 0.097510 0.143378
0.028511 0.092497 0.140560
0.045510 0.088468 0.181996
0.101668 0.073074 0.185724
0.099994 0.044363 0.207620
0.096687 0.016816 0.179382
0.071730 0.099254 0.258363
0.028825 0.083299 0.246710
0.061754 0.053743 0.259810
0.021249 0.039196 0.249863
0.047625 0.019746 0.340096
0.061858 0.099428 0.346529
0.097815 0.045949 0.300024
0.055087 0.046642 0.318997
0.027030 0.092385 0.458737
0.097455 0.009754 0.444833
0.021054 0.060563 0.431771
0.082949 0.056004 0.445717
0.011039 0.082714 0.063159
0.098835 0.055663 0.099477
0.135216 0.031989 0.093594
0.004527 0.019865 0.057788
0.059874 0.065868 0.100521
0.074002 0.049815 0.001455
0.099892 0.098448 0.099310
0.087736 0.009932 0.039952
0.100014 0.096710 0.118259
0.126559 0.098377 0.096550
0.012532 0.076676 0.100065
0.130464 0.077703 0.053677
0.104969 0.017052 0.056815
0.011904 0.010327 0.134587
0.062795 0.038533 0.065708
0.140285 0.062143 0.129270
0.096931 0.043180 0.157466
0.013270 0.046496 0.159923
0.062094 0.024470 0.157892
0.136075 0.011153 0.180946
0.046463 0.037098 0.202111
0.073171 0.029690 0.224350
0.002062 0.090137 0.208000
0.128859 0.003562 0.215398
0.101189 0.084789 0.258313
0.054924 0.075429 0.260165
0.132133 0.022643 0.266766
0.065011 0.042037 0.277050
0.100394 0.069920 0.315359
0.051210 0.074065 0.347054
0.018280 0.014720 0.368284
0.086887 0.011834 0.389080
0.041171 0.073909 0.061469
0.099905 0.062744 0.125337
0.067640 0.010255 0.023493
0.025093 0.030815 0.122519
0.029639 0.077328 0.127863
0.052960 0.076949 0.083356
0.059195 0.098901 0.096020
0.099106 0.031476 0.099900
0.056548 0.037474 0.125759
0.020861 0.060228 0.035047
0.128669 0.089251 0.009038
0.063175 0.089825 0.133476
0.124042 0.044433 0.125577
0.100013 0.037040 0.119895
0.084225 0.080544 0.151056
0.044454 0.072086 0.166718
0.048972 0.085077 0.210610
0.003770 0.075718 0.158074
0.099998 0.100000 0.199802
0.061770 0.011694 0.187664
0.131862 0.070669 0.242695
0.008136 0.063980 0.233595
0.096575 0.023823 0.251315
0.043706 0.020124 0.249261
0.100029 0.095299 0.299458
0.026947 0.082928 0.307747
0.099993 0.012419 0.279301
0.024028 0.035527 0.297284
0.027683 0.083748 0.384905
0.099736 0.088610 0.411610
0.019363 0.020963 0.412367
0.094358 0.060091 0.399982
0.060572 0.086577 0.049671
0.100274 0.004418 0.000248
0.074677 0.029123 0.132857
0.045140 0.048839 0.033880
0.036191 0.003566 0.091644
0.049938 0.001470 0.122430
0.099443 0.031842 0.029826
0.099602 0.042491 0.099787
0.069821 0.012800 0.067975
0.032334 0.027910 0.000205
0.101486 0.078442 0.060813
0.001538 0.057156 0.081865
0.099988 0.017122 0.110034
0.100627 0.030996 0.144762
0.137239 0.084824 0.128816
0.133345 0.095526 0.128997
0.078415 0.041195 0.179696
0.099976 0.050848 0.199938
0.096677 0.093970 0.152544
0.100040 0.086614 0.200020
0.059391 0.046396 0.229037
0.094811 0.069613 0.236093
0.052138 0.099283 0.218311
0.096137 0.004235 0.237682
0.026107 0.057179 0.280141
0.100026 0.067685 0.299935
0.097062 0.006131 0.273215
0.071365 0.087962 0.300039
0.003242 0.054969 0.381578
0.065179 0.082597 0.379797
0.101390 0.020403 0.340059
0.085169 0.042148 0.344759
0.082822 0.069110 0.047064
0.168115 0.067415 0.044329
0.005410 0.001309 0.021797
0.195275 0.006594 0.129170
0.085176 0.057388 0.061221
0.180296 0.048770 0.123859
0.135915 0.006855 0.094447
0.147182 0.094858 0.100023
0.051933 0.086854 0.100862
0.130134 0.051599 0.100001
0.041524 0.097722 0.053109
0.165013 0.095388 0.038340
0.031128 0.051105 0.128421
0.138027 0.076562 0.144330
0.043021 0.014600 0.161290
0.148515 0.017671 0.137680
0.081016 0.077050 0.194433
0.161518 0.082962 0.193401
0.100010 0.034506 0.199953
0.145841 0.051233 0.201408
0.007566 0.002554 0.247252
0.132221 0.095564 0.258601
0.107286 0.056225 0.247142
0.132960 0.047459 0.267471
0.026752 0.007252 0.316308
0.137929 0.018883 0.321651
0.058262 0.068184 0.310149
0.131406 0.049985 0.343200
0.050195 0.026281 0.452183
0.121319 0.036687 0.454193
0.079388 0.088060 0.461486
0.110728 0.064415 0.420477
0.123543 0.001306 0.159779
0.175530 0.002884 0.117147
0.135853 0.079346 0.094991
0.146134 0.050048 0.092002
0.099175 0.007174 0.099675
0.132809 0.010162 0.048649
0.054990 0.069040 0.128552
0.170674 0.065788 0.125700
0.133305 0.018180 0.028961
0.139063 0.010275 0.121162
0.093999 0.094435 0.097067
0.099992 0.063027 0.099749
0.034120 0.023600 0.054146
0.045002 0.021778 0.090439
0.042159 0.091710 0.093157
0.106907 0.087566 0.027240
0.063262 0.064621 0.159437
0.050528 0.047122 0.162178
0.127059 0.031906 0.162182
0.140812 0.039189 0.176046
0.075619 0.071063 0.221270
0.078593 0.057797 0.191396
0.029312 0.016518 0.215079
0.099033 0.091632 0.221179
0.045381 0.092796 0.278420
0.141206 0.077918 0.274051
0.096237 0.043425 0.257424
0.100012 0.026956 0.299688
0.091351 0.065045 0.346737
0.004842 0.085904 0.343287
0.090713 0.036868 0.376270
0.098520 0.089413 0.366063
0.081034 0.031624 0.075405
0.131458 0.049540 0.068945
0.140197 0.084934 0.081799
0.172174 0.081628 0.117713
0.091595 0.045750 0.034421
0.170732 0.043792 0.004598
0.129702 0.067527 0.097728
0.178619 0.076105 0.066569
0.095337 0.073146 0.097691
0.137711 0.062204 0.045920
0.099996 0.078890 0.099972
0.135409 0.095261 0.071088
0.099972 0.067306 0.118027
0.140425 0.035056 0.130598
0.068926 0.006973 0.130966
0.031900 0.090761 0.028706
0.096479 0.086051 0.168547
0.135880 0.090709 0.175475
0.099988 0.019060 0.200012
0.147622 0.023561 0.194895
0.070377 0.089651 0.236108
0.090774 0.096031 0.187513
0.132506 0.038709 0.223269
0.024415 0.032155 0.181470
0.092561 0.094026 0.330871
0.130638 0.079898 0.314355
0.082683 0.021789 0.313809
0.107593 0.043829 0.300000
0.054495 0.090501 0.421045
0.105976 0.007874 0.400002
0.067223 0.025207 0.414644
0.134531 0.035898 0.394487
0.138182 0.033946 0.017232
0.163318 0.037860 0.076566
0.084672 0.081034 0.022394
0.163122 0.084905 0.081630
0.099151 0.029822 0.003060
0.172715 0.029451 0.047381
0.101564 0.063202 0.016021
0.179836 0.090188 0.125922
0.055986 0.069253 0.020876
0.130522 0.027574 0.065031
0.052583 0.021835 0.021542
0.135066 0.090010 0.045276
0.040733 0.044181 0.062282
0.044363 0.055477 0.086727
0.099882 0.085913 0.131653
0.084575 0.095299 0.051393
0.133085 0.072140 0.167288
0.137063 0.076270 0.192026
0.100905 0.018433 0.154074
0.060090 0.095605 0.165342
0.031967 0.066264 0.191405
0.040562 0.060699 0.215032
0.012660 0.002457 0.180143
0.099003 0.026533 0.222984
0.096971 0.078406 0.281463
0.099931 0.071080 0.277216
0.053435 0.016417 0.286129
0.118775 0.000649 0.299976
0.054410 0.053381 0.408199
0.122173 0.068492 0.378669
0.049429 0.041867 0.371647
0.013908 0.049541 0.336935
0.200034 0.048403 0.095899
0.270048 0.003280 0.021441
0.228419 0.057833 0.079340
0.272631 0.049476 0.020149
0.199978 0.091741 0.099763
0.261279 0.077189 0.090244
0.226404 0.020935 0.026439
0.275048 0.034553 0.098721
0.200023 0.083224 0.099925
0.268226 0.097502 0.099460
0.200141 0.032123 0.048178
0.271744 0.053006 0.097736
0.216951 0.080666 0.128100
0.283398 0.093047 0.132025
0.208318 0.045579 0.138469
0.276506 0.039331 0.130999
0.204032 0.061793 0.152451
0.260033 0.084882 0.140524
0.184228 0.035863 0.166273
0.253327 0.025960 0.140362
0.164691 0.088443 0.229318
0.237410 0.084542 0.171789
0.141795 0.025712 0.234040
0.235653 0.039335 0.172725
0.182440 0.011774 0.318099
0.265324 0.019089 0.311862
0.171445 0.051696 0.329214
0.245721 0.059622 0.313646
0.148523 0.009899 0.430931
0.230864 0.000383 0.396641
0.155980 0.064122 0.422111
0.053582 0.058826 0.481517
0.173764 0.056530 0.078985
0.234644 0.041025 0.008152
0.164563 0.013812 0.063015
0.231461 0.086059 0.000032
0.166575 0.039187 0.097292
0.239892 0.046714 0.057130
0.168395 0.002706 0.078163
0.233183 0.003132 0.043421
0.165861 0.070574 0.014458
0.225442 0.076413 0.071471
0.167737 0.022319 0.099905
0.212018 0.022428 0.078265
0.164694 0.047857 0.048327
0.236746 0.031883 0.073152
0.194226 0.030964 0.114631
0.217533 0.093083 0.053255
0.163554 0.040371 0.136749
0.230294 0.052095 0.125110
0.155531 0.093873 0.154823
0.226911 0.097934 0.116887
0.172521 0.059482 0.200416
0.200047 0.055983 0.199952
0.168422 0.097666 0.199940
0.180920 0.084296 0.162343
0.180973 0.091106 0.261757
0.210078 0.071626 0.282943
0.165522 0.027227 0.276921
0.191479 0.042370 0.290924
0.133819 0.083819 0.345711
0.205373 0.076057 0.327781
0.126561 0.011635 0.360239
0.200327 0.047711 0.360600
0.205117 0.078773 0.051123
0.268637 0.071640 0.062361
0.199393 0.002793 0.010773
0.272443 0.027798 0.041137
0.166112 0.079198 0.098410
0.261330 0.069047 0.117451
0.200049 0.036514 0.099979
0.254387 0.004112 0.083614
0.180533 0.087857 0.050786
0.248238 0.090647 0.058830
0.200401 0.025083 0.099954
0.262134 0.021600 0.059118
0.202026 0.084042 0.148047
0.239909 0.088905 0.091735
0.205796 0.018360 0.150665
0.235080 0.026576 0.124813
0.171885 0.068105 0.163359
0.246010 0.066603 0.136533
0.180926 0.012074 0.162870
0.229084 0.017079 0.160704
0.140721 0.073512 0.227492
0.192942 0.080950 0.227725
0.173534 0.020166 0.204859
0.200032 0.019329 0.199940
0.166307 0.087716 0.336374
0.235688 0.094409 0.297481
0.144967 0.039671 0.302627
0.201780 0.042086 0.300008
0.150557 0.094173 0.389902
0.194590 0.095706 0.368979
0.181123 0.030312 0.400144
0.241779 0.036583 0.367334
0.202893 0.048082 0.043507
0.242678 0.055743 0.099122
0.200022 0.097368 0.094563
0.245322 0.011094 0.100144
0.199986 0.061201 0.099947
0.246025 0.059500 0.040499
0.162296 0.003365 0.098453
0.237142 0.092755 0.127032
0.204150 0.061260 0.027680
0.200829 0.074338 0.002534
0.203072 0.009971 0.063564
0.200040 0.008495 0.100011
0.200001 0.072257 0.099995
0.239286 0.075000 0.025180
0.179498 0.005159 0.029323
0.244658 0.026130 0.098161
0.168186 0.048751 0.164949
0.227041 0.060283 0.165887
0.165565 0.003357 0.159089
0.222322 0.095586 0.163148
0.112175 0.059559 0.200015
0.200012 0.038710 0.191571
0.126595 0.089110 0.215278
0.200022 0.099242 0.191809
0.149228 0.065948 0.300719
0.190090 0.079832 0.300025
0.157177 0.098348 0.292545
0.201650 0.004468 0.289082
0.163741 0.063624 0.373166
0.238578 0.081022 0.354750
0.163300 0.022518 0.358047
0.220714 0.017467 0.332632
0.358961 0.015181 0.000046
0.475495 0.085314 0.013615
0.334555 0.051395 0.000128
0.453334 0.053225 0.029282
0.359922 0.092265 0.032913
0.465309 0.004078 0.091603
0.335047 0.058836 0.062724
0.457762 0.056211 0.088095
0.340276 0.011399 0.055451
0.480619 0.019879 0.041411
0.337247 0.072451 0.044415
0.468839 0.084151 0.063042
0.344081 0.017295 0.130089
0.486301 0.033552 0.106713
0.359223 0.054222 0.127003
0.433227 0.078293 0.114703
0.336103 0.008275 0.174629
0.453671 0.006003 0.137328
0.348755 0.046588 0.166775
0.499789 0.059100 0.054889
0.335965 0.014818 0.245203
0.448701 0.086125 0.209735
0.338554 0.066105 0.239733
0.464529 0.062755 0.137003
0.227101 0.072924 0.212771
0.270253 0.099118 0.223405
0.218478 0.044375 0.215819
0.288548 0.048029 0.206072
0.229822 0.088358 0.256116
0.270928 0.097402 0.269699
0.238647 0.035846 0.277184
0.278118 0.052040 0.278481
0.275135 0.088354 0.045525
0.342782 0.066899 0.094033
0.298545 0.013936 0.007676
0.403957 0.027851 0.020742
0.271592 0.076262 0.001130
0.369609 0.085822 0.073806
0.300009 0.028735 0.099993
0.399738 0.005422 0.060327
0.299135 0.080970 0.099608
0.374264 0.064576 0.067216
0.283675 0.041159 0.070781
0.379294 0.025143 0.059213
0.299993 0.077027 0.113661
0.387187 0.084965 0.100801
0.301432 0.049286 0.061150
0.396301 0.005431 0.098988
0.298444 0.085052 0.161433
0.369792 0.088274 0.122536
0.298091 0.055476 0.137227
0.386248 0.024242 0.126299
0.300031 0.080427 0.199980
0.352361 0.075913 0.196198
0.299999 0.048039 0.189819
0.388571 0.050350 0.193957
0.174573 0.052147 0.225324
0.266947 0.045665 0.168369
0.191353 0.021328 0.225827
0.275278 0.013323 0.134225
0.168525 0.047384 0.247898
0.258944 0.035001 0.210818
0.160528 0.006049 0.245050
0.232450 0.095146 0.213576
0.331494 0.092184 0.094100
0.395125 0.090442 0.031939
0.332221 0.036417 0.071752
0.435754 0.024541 0.098193
0.326260 0.086626 0.007225
0.425431 0.084041 0.075829
0.323602 0.029045 0.097361
0.404131 0.051344 0.093684
0.347166 0.096806 0.081623
0.436602 0.096112 0.032507
0.325358 0.024814 0.031147
0.439916 0.024671 0.061055
0.327939 0.091798 0.127916
0.413892 0.011353 0.099348
0.317847 0.037680 0.117505
0.427741 0.039515 0.129968
0.360812 0.087712 0.156991
0.409397 0.094328 0.140772
0.310246 0.034632 0.156205
0.419264 0.029984 0.169426
0.315147 0.095320 0.209761
0.396930 0.091537 0.183619
0.329267 0.041388 0.207076
0.463974 0.034333 0.172705
0.200025 0.072387 0.193366
0.275432 0.066300 0.162485
0.233970 0.016619 0.200531
0.273702 0.014655 0.174005
0.170744 0.067212 0.264170
0.295512 0.073778 0.243008
0.202798 0.030720 0.254851
0.293187 0.027546 0.242809
0.300654 0.062251 0.099997
0.416695 0.067192 0.001293
0.292736 0.097235 0.087575
0.358545 0.026848 0.095946
0.304414 0.050739 0.024991
0.400159 0.066166 0.044444
0.314279 0.090907 0.049014
0.364972 0.036890 0.040147
0.303137 0.077857 0.089642
0.420918 0.051383 0.057971
0.299607 0.004894 0.059416
0.375848 0.041650 0.092621
0.294825 0.074122 0.045227
0.399975 0.059931 0.100489
0.299961 0.009767 0.099910
0.368961 0.059447 0.017495
0.334776 0.066502 0.130961
0.392726 0.061457 0.148500
0.308964 0.007804 0.147295
0.376055 0.021826 0.160257
0.323204 0.072381 0.167278
0.383097 0.081400 0.228001
0.300004 0.014113 0.198673
0.364228 0.016806 0.206454
0.247302 0.063745 0.195043
0.271274 0.080148 0.201857
0.200051 0.087970 0.199996
0.262335 0.097852 0.177124
0.212030 0.059228 0.249176
0.254991 0.063706 0.241106
0.207381 0.002808 0.240114
0.245220 0.025258 0.244713

CELL_TYPES 512
1
1
1
1
1
1
1
1
1
1
1
1
1
1
1
1
1
1
1
1
1
1
1
1
1
1
1
1
1
1
1
1
1
1
1
1
1
1
1
1
1
1
1
1
1
1
1
1
1
1
1
1
1
1
1
1
1
1
1
1
1
1
1
1
1
1
1
1
1
1
1
1
1
1
1
1
1
1
1
1
1
1
1
1
1
1
1
1
1
1
1
1
1
1
1
1
1
1
1
1
1
1
1
1
1
1
1
1
1
1
1
1
1
1
1
1
1
1
1
1
1
1
1
1
1
1
1
1
1
1
1
1
1
1
1
1
1
1
1
1
1
1
1
1
1
1
1
1
1
1
1
1
1
1
1
1
1
1
1
1
1
1
1
1
1
1
1
1
1
1
1
1
1
1
1
1
1
1
1
1
1
1
1
1
1
1
1
1
1
1
1
1
1
1
1
1
1
1
1
1
1
1
1
1
1
1
1
1
1
1
1
1
1
1
1
1
1
1
1
1
1
1
1
1
1
1
1
1
1
1
1
1
1
1
1
1
1
1
1
1
1
1
1
1
1
1
1
1
1
1
1
1
1
1
1
1
1
1
1
1
1
1
1
1
1
1
1
1
1
1
1
1
1
1
1
1
1
1
1
1
1
1
1
1
1
1
1
1
1
1
1
1
1
1
1
1
1
1
1
1
1
1
1
1
1
1
1
1
1
1
1
1
1
1
1
1
1
1
1
1
1
1
1
1
1
1
1
1
1
1
1
1
1
1
1
1
1
1
1
1
1
1
1
1
1
1
1
1
1
1
1
1
1
1
1
1
1
1
1
1
1
1
1
1
1
1
1
1
1
1
1
1
1
1
1
1
1
1
1
1
1
1
1
1
1
1
1
1
1
1
1
1
1
1
1
1
1
1
1
1
1
1
1
1
1
1
1
1
1
1
1
1
1
1
1
1
1
1
1
1
1
1
1
1
1
1
1
1
1
1
1
1
1
1
1
1
1
1
1
1
1
1
1
1
1
1
1
1
1
1
1
1
1
1
1
1
1
1
1
1
1
1
1
1
1
1
1
1
1
1
1
1
1
1
1
1
1
1
1
1
1
1
1
1
1
1
1
1
1
1
1
1
1
1
1
1
1
1
1
1
1
1
1
1
1
1
1
1
1
1
1
1

POINT_DATA 512
SCALARS radius float
LOOKUP_TABLE default
0.5
0.5
0.5
0.5
0.5
0.5
0.5
0.5
0.5
0.5
0.5
0.5
0.5
0.5
0.5
0.5
0.5
0.5
0.5
0.5
0.5
0.5
0.5
0.5
0.5
0.5
0.5
0.5
0.5
0.5
0.5
0.5
0.5
0.5
0.5
0.5
0.5
0.5
0.5
0.5
0.5
0.5
0.5
0.5
0.5
0.5
0.5
0.5
0.5
0.5
0.5
0.5
0.5
0.5
0.5
0.5
0.5
0.5
0.5
0.5
0.5
0.5
0.5
0.5
0.5
0.5
0.5
0.5
0.5
0.5
0.5
0.5
0.5
0.5
0.5
0.5
0.5
0.5
0.5
0.5
0.5
0.5
0.5
0.5
0.5
0.5
0.5
0.5
0.5
0.5
0.5
0.5
0.5
0.5
0.5
0.5
0.5
0.5
0.5
0.5
0.5
0.5
0.5
0.5
0.5
0.5
0.5
0.5
0.5
0.5
0.5
0.5
0.5
0.5
0.5
0.5
0.5
0.5
0.5
0.5
0.5
0.5
0.5
0.5
0.5
0.5
0.5
0.5
0.5
0.5
0.5
0.5
0.5
0.5
0.5
0.5
0.5
0.5
0.5
0.5
0.5
0.5
0.5
0.5
0.5
0.5
0.5
0.5
0.5
0.5
0.5
0.5
0.5
0.5
0.5
0.5
0.5
0.5
0.5
0.5
0.5
0.5
0.5
0.5
0.5
0.5
0.5
0.5
0.5
0.5
0.5
0.5
0.5
0.5
0.5
0.5
0.5
0.5
0.5
0.5
0.5
0.5
0.5
0.5
0.5
0.5
0.5
0.5
0.5
0.5
0.5
0.5
0.5
0.5
0.5
0.5
0.5
0.5
0.5
0.5
0.5
0.5
0.5
0.5
0.5
0.5
0.5
0.5
0.5
0.5
0.5
0.5
0.5
0.5
0.5
0.5
0.5
0.5
0.5
0.5
0.5
0.5
0.5
0.5
0.5
0.5
0.5
0.5
0.5
0.5
0.5
0.5
0.5
0.5
0.5
0.5
0.5
0.5
0.5
0.5
0.5
0.5
0.5
0.5
0.5
0.5
0.5
0.5
0.5
0.5
0.5
0.5
0.5
0.5
0.5
0.5
0.5
0.5
0.5
0.5
0.5
0.5
0.5
0.5
0.5
0.5
0.5
0.5
0.5
0.5
0.5
0.5
0.5
0.5
0.5
0.5
0.5
0.5
0.5
0.5
0.5
0.5
0.5
0.5
0.5
0.5
0.5
0.5
0.5
0.5
0.5
0.5
0.5
0.5
0.5
0.5
0.5
0.5
0.5
0.5
0.5
0.5
0.5
0.5
0.5
0.5
0.5
0.5
0.5
0.5
0.5
0.5
0.5
0.5
0.5
0.5
0.5
0.5
0.5
0.5
0.5
0.5
0.5
0.5
0.5
0.5
0.5
0.5
0.5
0.5
0.5
0.5
0.5
0.5
0.5
0.5
0.5
0.5
0.5
0.5
0.5
0.5
0.5
0.5
0.5
0.5
0.5
0.5
0.5
0.5
0.5
0.5
0.5
0.5
0.5
0.5
0.5
0.5
0.5
0.5
0.5
0.5
0.5
0.5
0.5
0.5
0.5
0.5
0.5
0.5
0.5
0.5
0.5
0.5
0.5
0.5
0.5
0.5
0.5
0.5
0.5
0.5
0.5
0.5
0.5
0.5
0.5
0.5
0.5
0.5
0.5
0.5
0.5
0.5
0.5
0.5
0.5
0.5
0.5
0.5
0.5
0.5
0.5
0.5
0.5
0.5
0.5
0.5
0.5
0.5
0.5
0.5
0.5
0.5
0.5
0.5
0.5
0.5
0.5
0.5
0.5
0.5
0.5
0.5
0.5
0.5
0.5
0.5
0.5
0.5
0.5
0.5
0.5
0.5
0.5
0.5
0.5
0.5
0.5
0.5
0.5
0.5
0.5
0.5
0.5
0.5
0.5
0.5
0.5
0.5
0.5
0.5
0.5
0.5
0.5
0.5
0.5
0.5
0.5
0.5
0.5
0.5
0.5
0.5
0.5
0.5
0.5
0.5
0.5
0.5
0.5
0.5
0.5
0.5
0.5
0.5
0.5
0.5
0.5
0.5
0.5
0.5
0.5
0.5
0.5
0.5
0.5
0.5
0.5
0.5
0.5
0.5
0.5
0.5
0.5
0.5
0.5
0.5
0.5
0.5
0.5
0.5
0.5
0.5
0.5
0.5
0.5
0.5
0.5
0.5
0.5
0.5
