# vtk DataFile Version 2.0
Title Data
ASCII
DATASET UNSTRUCTURED_GRID
POINTS 360 float
0.548046 0.036387 0.388828
0.678709 0.057438 0.562132
0.046306 0.099740 0.379481
0.094433 0.026319 0.300586
0.789868 0.014084 0.550456
0.655136 0.167433 0.566792
0.189067 0.099347 0.099297
0.174563 0.045253 0.292594
0.413367 0.011867 0.779570
0.587517 0.100064 0.636989
0.069904 0.018386 0.370319
0.446968 0.002142 0.496226
0.284542 0.005834 0.528775
0.437815 0.099979 0.688297
0.272993 0.076869 0.493223
0.564938 0.099967 0.700674
0.572253 0.006099 0.758457
0.635273 0.055535 0.714792
0.002122 0.097560 0.352082
0.225184 0.027348 0.541759
0.132281 0.054660 0.422064
0.396512 0.100234 0.789873
0.093179 0.112789 0.376099
0.407649 0.105644 0.737920
0.167164 0.099904 0.322138
0.428731 0.007802 0.198998
0.398683 0.025830 0.016704
0.301287 0.050631 0.343464
0.358073 0.099687 0.197568
0.318039 0.099801 0.387740
0.121882 0.099361 0.360166
0.579296 0.004349 0.561912
0.261647 0.002041 0.196892
0.619126 0.059243 0.512198
0.541197 0.046021 0.470788
0.400077 0.058224 0.746291
0.399552 0.044538 0.770295
0.529127 0.099892 0.731867
0.375055 0.099660 0.478354
0.399944 0.010805 0.737478
0.600155 0.133607 0.688503
0.647388 0.099942 0.676848
0.367920 0.116134 0.727704
0.253430 0.017261 0.659251
0.190749 0.067395 0.499985
0.372659 0.099994 0.771156
0.465198 0.091896 0.626264
0.464280 0.106719 0.780705
0.424205 0.032832 0.155390
0.360421 0.099697 0.371367
0.191741 0.100269 0.268964
0.401248 0.051406 0.105139
0.185755 0.061063 0.422776
0.600523 0.097429 0.575055
0.162969 0.016304 0.350649
0.483348 0.099807 0.462051
0.562659 0.034376 0.627993
0.200596 0.034858 0.383731
0.140741 0.099953 0.445573
0.150113 0.100929 0.400244
0.401027 0.100024 0.495207
0.333724 0.099363 0.475423
0.619101 0.050641 0.679235
0.329366 0.051402 0.400148
0.376064 0.092916 0.728626
0.630981 0.099974 0.724269
0.387398 0.043461 0.599342
0.399802 0.067709 0.796275
0.099684 0.098311 0.658827
0.367243 0.099405 0.613811
0.158821 0.099815 0.733577
0.092469 0.099862 0.538660
0.098499 0.099739 0.300727
0.445122 0.102595 0.180180
0.061117 0.073813 0.300788
0.198412 0.099637 0.176739
0.236667 0.099613 0.342368
0.099272 0.099989 0.099940
0.288081 0.099869 0.208636
0.157288 0.056955 0.383668
0.196222 0.053878 0.344697
0.226006 0.099911 0.214990
0.602561 0.094668 0.692157
0.442191 0.099928 0.482363
0.116051 0.099978 0.308366
0.287151 0.099709 0.452708
0.095885 0.096588 0.399237
0.397321 0.049452 0.489143
0.143538 0.099847 0.281333
0.099913 0.027847 0.698411
0.124341 0.097974 0.780351
0.099242 0.048026 0.499105
0.065068 0.099965 0.475949
0.244951 0.099703 0.687983
0.424567 0.122514 0.782641
0.153890 0.099675 0.565444
0.300493 0.099970 0.344939
0.596272 0.014771 0.506214
0.196315 0.070953 0.243147
0.478479 0.099943 0.394913
0.399011 0.096965 0.100035
0.219570 0.099782 0.425614
0.563025 0.099926 0.363268
0.664536 0.092077 0.486407
0.268480 0.036362 0.415364
0.411606 0.070673 0.513446
0.169239 0.099950 0.364548
0.568178 0.087920 0.661315
0.423229 0.123228 0.707117
0.385707 0.099511 0.529997
0.184392 0.104926 0.467746
0.493044 0.177431 0.684424
0.483134 0.002477 0.639084
0.495650 0.140503 0.654673
0.493054 0.122051 0.723244
0.502211 0.199937 0.642441
0.242584 0.099932 0.546954
0.294306 0.100075 0.526064
0.280184 0.099932 0.646086
0.496039 0.199894 0.728312
0.402080 0.099890 0.084413
0.398610 0.027736 0.072292
0.702232 0.003164 0.561537
0.462780 0.012583 0.390243
0.675476 0.007984 0.651120
0.713277 0.054304 0.632323
0.699203 0.060354 0.274979
0.452015 0.050263 0.484544
0.699182 0.050726 0.228694
0.700108 0.099435 0.643133
0.641225 0.099578 0.596410
0.657918 0.022088 0.552708
0.713265 0.029478 0.676027
0.623938 0.016299 0.643679
0.439251 0.112159 0.636909
0.624625 0.079212 0.636486
0.758344 0.168295 0.603663
0.645906 0.010917 0.684700
0.695462 0.099957 0.749083
0.479142 0.107500 0.678477
0.599998 0.103739 0.772330
0.323476 0.132534 0.789608
0.485192 0.049091 0.657236
0.427824 0.080988 0.758326
0.404420 0.099915 0.011543
0.109502 0.057450 0.317849
0.797700 0.107270 0.259606
0.700053 0.056884 0.144201
0.668079 0.051170 0.513371
0.744422 0.057233 0.602559
0.648765 0.004421 0.494694
0.705821 0.127200 0.416871
0.750700 0.077900 0.555355
0.469404 0.031413 0.298258
0.539506 0.071563 0.641197
0.706917 0.094073 0.567991
0.625620 0.128932 0.636959
0.162675 0.015578 0.406219
0.422350 0.049732 0.670177
0.600186 0.099782 0.704036
0.405898 0.101107 0.672259
0.739663 0.091929 0.724941
0.678075 0.035313 0.701567
0.578947 0.099969 0.799781
0.461286 0.065573 0.696877
0.190184 0.059451 0.639012
0.352811 0.133138 0.681773
0.530316 0.099431 0.687729
0.183731 0.034171 0.208626
0.340215 0.003380 0.285718
0.445309 0.099822 0.298985
0.717370 0.049845 0.534163
0.606111 0.020417 0.400206
0.733067 0.165325 0.405153
0.451639 0.091699 0.553040
0.642835 0.077043 0.434247
0.689816 0.037101 0.599911
0.581550 0.012359 0.671011
0.639058 0.094031 0.528856
0.550974 0.105127 0.608899
0.220554 0.099392 0.384259
0.629491 0.052809 0.595497
0.597855 0.052115 0.556506
0.594019 0.052111 0.643913
0.434696 0.061599 0.797000
0.573689 0.098066 0.733839
0.401419 0.083121 0.639615
0.560093 0.052185 0.742075
0.600441 0.134268 0.737693
0.400096 0.099964 0.762595
0.147635 0.091165 0.499852
0.450141 0.127842 0.740753
0.167613 0.099850 0.182068
0.558256 0.135980 0.570925
0.378174 0.061512 0.215129
0.797608 0.196736 0.299869
0.304810 0.099990 0.407700
0.577146 0.071150 0.399977
0.631430 0.099847 0.315619
0.663298 0.106242 0.500083
0.532521 0.099951 0.488043
0.584160 0.099953 0.531356
0.556217 0.185032 0.561013
0.533980 0.162967 0.638315
0.487217 0.099873 0.592706
0.530042 0.115721 0.647397
0.457641 0.155742 0.683632
0.531730 0.150536 0.686571
0.400124 0.031098 0.707977
0.562868 0.052074 0.688874
0.568232 0.199865 0.655508
0.680160 0.182944 0.675324
0.399757 0.074286 0.715997
0.480840 0.081270 0.744675
0.506674 0.110453 0.766573
0.648219 0.099991 0.760884
0.709554 0.083261 0.399900
0.454991 0.099396 0.133675
0.672057 0.092155 0.334822
0.408938 0.099872 0.217027
0.599170 0.110518 0.599995
0.426251 0.057801 0.198443
0.668222 0.100076 0.411664
0.764721 0.044097 0.522439
0.580151 0.099716 0.474903
0.785794 0.174644 0.397097
0.433639 0.099970 0.375012
0.639916 0.100162 0.374839
0.546217 0.199948 0.610780
0.573417 0.151694 0.613530
0.358972 0.082057 0.280973
0.629776 0.127762 0.558626
0.518919 0.157655 0.735210
0.619071 0.201991 0.653439
0.529968 0.199869 0.683119
0.598723 0.167777 0.562507
0.558894 0.191812 0.720131
0.667303 0.199950 0.603204
0.479662 0.153124 0.765596
0.623562 0.199916 0.538104
0.615636 0.071193 0.360377
0.776165 0.048604 0.395561
0.791110 0.079433 0.359663
0.393679 0.052507 0.394544
0.789198 0.103213 0.604021
0.767066 0.109722 0.298364
0.702583 0.110163 0.462396
0.677009 0.069954 0.378119
0.794778 0.064494 0.555659
0.780340 0.028718 0.596799
0.739494 0.157382 0.537456
0.683700 0.099875 0.282608
0.599986 0.031042 0.729325
0.752698 0.123989 0.582415
0.681054 0.145960 0.643234
0.781008 0.080327 0.599969
0.748640 0.047886 0.703183
0.751952 0.143312 0.643382
0.708398 0.094203 0.691996
0.739055 0.074936 0.659584
0.558291 0.045361 0.787649
0.760060 0.113227 0.681657
0.784088 0.012300 0.689325
0.784429 0.059497 0.668883
0.715774 0.039844 0.339234
0.763473 0.099958 0.473917
0.668421 0.099820 0.599141
0.738191 0.019926 0.398929
0.700111 0.103285 0.522727
0.795130 0.013593 0.454270
0.380498 0.099713 0.139507
0.668006 0.049774 0.462895
0.715172 0.083607 0.346987
0.749602 0.096576 0.377881
0.682447 0.081677 0.602595
0.755803 0.030986 0.640675
0.705973 0.161436 0.571645
0.739726 0.075902 0.501866
0.679433 0.062465 0.664993
0.658903 0.100785 0.632107
0.662645 0.127979 0.709982
0.701081 0.025327 0.629375
0.549867 0.090326 0.770446
0.645250 0.021213 0.744869
0.602788 0.073995 0.750797
0.782805 0.099724 0.704100
0.606028 0.037078 0.775954
0.708188 0.054485 0.731138
0.594018 0.027397 0.365985
0.699693 0.131169 0.382199
0.417096 0.099963 0.054292
0.738369 0.099615 0.435723
0.708693 0.034352 0.478449
0.719200 0.099950 0.297523
0.788876 0.057460 0.072797
0.695502 0.031104 0.391924
0.623082 0.151104 0.598729
0.605074 0.099978 0.660742
0.624596 0.199969 0.599248
0.715368 0.119320 0.653894
0.656898 0.048852 0.631356
0.667220 0.099964 0.555967
0.594401 0.198929 0.609242
0.733745 0.199906 0.577768
0.559937 0.141865 0.718390
0.688682 0.100214 0.688286
0.567353 0.137455 0.660132
0.672682 0.135333 0.597430
0.625526 0.077426 0.797693
0.670944 0.080637 0.714920
0.640522 0.154429 0.675965
0.788148 0.059336 0.476414
0.699327 0.005260 0.248572
0.762652 0.018754 0.344989
0.417820 0.102855 0.112618
0.755625 0.018098 0.482524
0.699704 0.099753 0.168953
0.488410 0.099945 0.199043
0.747078 0.050939 0.446323
0.711820 0.099966 0.497365
0.600712 0.165650 0.647537
0.694876 0.184275 0.398701
0.699990 0.099993 0.112477
0.780622 0.089172 0.422349
0.685690 0.199916 0.568013
0.718440 0.058104 0.582160
0.700003 0.092086 0.520238
0.715689 0.119443 0.561206
0.602638 0.180503 0.696819
0.724281 0.000804 0.600169
0.681328 0.140853 0.537550
0.700386 0.100015 0.600294
0.716729 0.142109 0.610480
0.702579 0.384590 0.560040
0.795061 0.123812 0.647342
0.786922 0.152883 0.566772
0.401432 0.064003 0.042285
0.774282 0.099776 0.099406
0.603954 0.099981 0.402081
0.701384 0.100092 0.371058
0.739397 0.155845 0.299686
0.700062 0.042763 0.190094
0.659756 0.126260 0.452985
0.475704 0.099280 0.097192
0.789182 0.188718 0.471327
0.762701 0.099902 0.323823
0.699946 0.096546 0.212070
0.467241 0.050863 0.107207
0.783762 0.152429 0.278258
0.746718 0.026290 0.563437
0.702752 0.121579 0.322515
0.702324 0.069380 0.442771
0.647067 0.171172 0.631299
0.765566 0.130522 0.399829
0.668605 0.196331 0.523526
0.710158 0.188896 0.620679
0.742043 0.100639 0.619616
0.762483 0.115705 0.535412
0.672075 0.197182 0.451199
0.715870 0.199945 0.531142

CELL_TYPES 360
1
1
1
1
1
1
1
1
1
1
1
1
1
1
1
1
1
1
1
1
1
1
1
1
1
1
1
1
1
1
1
1
1
1
1
1
1
1
1
1
1
1
1
1
1
1
1
1
1
1
1
1
1
1
1
1
1
1
1
1
1
1
1
1
1
1
1
1
1
1
1
1
1
1
1
1
1
1
1
1
1
1
1
1
1
1
1
1
1
1
1
1
1
1
1
1
1
1
1
1
1
1
1
1
1
1
1
1
1
1
1
1
1
1
1
1
1
1
1
1
1
1
1
1
1
1
1
1
1
1
1
1
1
1
1
1
1
1
1
1
1
1
1
1
1
1
1
1
1
1
1
1
1
1
1
1
1
1
1
1
1
1
1
1
1
1
1
1
1
1
1
1
1
1
1
1
1
1
1
1
1
1
1
1
1
1
1
1
1
1
1
1
1
1
1
1
1
1
1
1
1
1
1
1
1
1
1
1
1
1
1
1
1
1
1
1
1
1
1
1
1
1
1
1
1
1
1
1
1
1
1
1
1
1
1
1
1
1
1
1
1
1
1
1
1
1
1
1
1
1
1
1
1
1
1
1
1
1
1
1
1
1
1
1
1
1
1
1
1
1
1
1
1
1
1
1
1
1
1
1
1
1
1
1
1
1
1
1
1
1
1
1
1
1
1
1
1
1
1
1
1
1
1
1
1
1
1
1
1
1
1
1
1
1
1
1
1
1
1
1
1
1
1
1
1
1
1
1
1
1
1
1
1
1
1
1
1
1
1
1
1
1
1
1
1
1
1
1
1
1
1
1
1
1
1
1
1
1
1
1

POINT_DATA 360
SCALARS radius float
LOOKUP_TABLE default
0.5
0.5
0.5
0.5
0.5
0.5
0.5
0.5
0.5
0.5
0.5
0.5
0.5
0.5
0.5
0.5
0.5
0.5
0.5
0.5
0.5
0.5
0.5
0.5
0.5
0.5
0.5
0.5
0.5
0.5
0.5
0.5
0.5
0.5
0.5
0.5
0.5
0.5
0.5
0.5
0.5
0.5
0.5
0.5
0.5
0.5
0.5
0.5
0.5
0.5
0.5
0.5
0.5
0.5
0.5
0.5
0.5
0.5
0.5
0.5
0.5
0.5
0.5
0.5
0.5
0.5
0.5
0.5
0.5
0.5
0.5
0.5
0.5
0.5
0.5
0.5
0.5
0.5
0.5
0.5
0.5
0.5
0.5
0.5
0.5
0.5
0.5
0.5
0.5
0.5
0.5
0.5
0.5
0.5
0.5
0.5
0.5
0.5
0.5
0.5
0.5
0.5
0.5
0.5
0.5
0.5
0.5
0.5
0.5
0.5
0.5
0.5
0.5
0.5
0.5
0.5
0.5
0.5
0.5
0.5
0.5
0.5
0.5
0.5
0.5
0.5
0.5
0.5
0.5
0.5
0.5
0.5
0.5
0.5
0.5
0.5
0.5
0.5
0.5
0.5
0.5
0.5
0.5
0.5
0.5
0.5
0.5
0.5
0.5
0.5
0.5
0.5
0.5
0.5
0.5
0.5
0.5
0.5
0.5
0.5
0.5
0.5
0.5
0.5
0.5
0.5
0.5
0.5
0.5
0.5
0.5
0.5
0.5
0.5
0.5
0.5
0.5
0.5
0.5
0.5
0.5
0.5
0.5
0.5
0.5
0.5
0.5
0.5
0.5
0.5
0.5
0.5
0.5
0.5
0.5
0.5
0.5
0.5
0.5
0.5
0.5
0.5
0.5
0.5
0.5
0.5
0.5
0.5
0.5
0.5
0.5
0.5
0.5
0.5
0.5
0.5
0.5
0.5
0.5
0.5
0.5
0.5
0.5
0.5
0.5
0.5
0.5
0.5
0.5
0.5
0.5
0.5
0.5
0.5
0.5
0.5
0.5
0.5
0.5
0.5
0.5
0.5
0.5
0.5
0.5
0.5
0.5
0.5
0.5
0.5
0.5
0.5
0.5
0.5
0.5
0.5
0.5
0.5
0.5
0.5
0.5
0.5
0.5
0.5
0.5
0.5
0.5
0.5
0.5
0.5
0.5
0.5
0.5
0.5
0.5
0.5
0.5
0.5
0.5
0.5
0.5
0.5
0.5
0.5
0.5
0.5
0.5
0.5
0.5
0.5
0.5
0.5
0.5
0.5
0.5
0.5
0.5
0.5
0.5
0.5
0.5
0.5
0.5
0.5
0.5
0.5
0.5
0.5
0.5
0.5
0.5
0.5
0.5
0.5
0.5
0.5
0.5
0.5
0.5
0.5
0.5
0.5
0.5
0.5
0.5
0.5
0.5
0.5
0.5
0.5
0.5
0.5
0.5
0.5
0.5
0.5
0.5
0.5
0.5
0.5
0.5
0.5
0.5
0.5
0.5
0.5
0.5
0.5
0.5
0.5
0.5
0.5
0.5
0.5
0.5
0.5
0.5
0.5
0.5
0.5
