# vtk DataFile Version 2.0
Title Data
ASCII
DATASET UNSTRUCTURED_GRID
POINTS 512 float
0.003248 0.075592 0.078495
0.019209 0.070562 0.105336
0.099949 0.010780 0.098988
0.131970 0.025530 0.069108
0.101490 0.076210 0.002905
0.084837 0.060685 0.018078
0.098257 0.026654 0.129760
0.099937 0.024060 0.100034
0.099870 0.029562 0.070676
0.058296 0.025729 0.044051
0.106773 0.095112 0.099986
0.063787 0.076253 0.099118
0.012442 0.040115 0.155834
0.115459 0.035839 0.164113
0.002389 0.078867 0.165078
0.054306 0.075186 0.158133
0.100003 0.065713 0.200044
0.100048 0.053706 0.200007
0.100003 0.026958 0.212369
0.099982 0.096372 0.200094
0.050699 0.078914 0.283076
0.010849 0.060464 0.260423
0.054098 0.028322 0.274173
0.023890 0.005994 0.271183
0.099743 0.091064 0.354388
0.030130 0.075799 0.360264
0.096693 0.029111 0.341531
0.049034 0.029153 0.337668
0.091280 0.072450 0.472982
0.048953 0.082994 0.480540
0.088004 0.025683 0.455344
0.050503 0.035242 0.473112
0.045448 0.058266 0.077432
0.100020 0.037439 0.100040
0.111418 0.007775 0.100009
0.016553 0.092992 0.088596
0.077917 0.041589 0.037184
0.086515 0.024038 0.055318
0.089631 0.091796 0.129916
0.109018 0.073794 0.100069
0.100043 0.085469 0.114315
0.125914 0.085472 0.100005
0.099947 0.048933 0.100044
0.135449 0.049404 0.071735
0.036584 0.096263 0.100490
0.046180 0.092605 0.141825
0.093299 0.020942 0.024938
0.127129 0.034706 0.132988
0.100229 0.012975 0.171954
0.044379 0.014414 0.181273
0.086349 0.098588 0.165146
0.120949 0.091154 0.174490
0.054099 0.014091 0.229001
0.080686 0.008390 0.239958
0.012714 0.069733 0.218023
0.126403 0.081342 0.234540
0.078479 0.062246 0.277055
0.041749 0.052090 0.274683
0.112327 0.097803 0.280040
0.059098 0.010233 0.299456
0.082971 0.047922 0.347834
0.100128 0.059927 0.366840
0.099338 0.090370 0.400000
0.005731 0.091593 0.396523
0.054463 0.046105 0.090239
0.028264 0.047219 0.118102
0.091442 0.097225 0.068398
0.099682 0.000724 0.106251
0.054261 0.045720 0.133052
0.085540 0.063156 0.094919
0.077964 0.084171 0.042774
0.099887 0.093390 0.099979
0.096093 0.011406 0.132493
0.052302 0.050048 0.055160
0.109206 0.064535 0.048079
0.046543 0.065424 0.134919
0.005932 0.023429 0.140313
0.049717 0.013595 0.135772
0.093294 0.063660 0.161022
0.030833 0.050594 0.167011
0.035441 0.054475 0.210351
0.055310 0.051368 0.181289
0.059386 0.079935 0.214977
0.071555 0.094399 0.196050
0.117236 0.046715 0.252591
0.097202 0.053309 0.246671
0.064129 0.096138 0.265577
0.011573 0.087981 0.249814
0.091503 0.074422 0.326976
0.100025 0.060877 0.318421
0.095923 0.096703 0.306290
0.006628 0.015036 0.315834
0.096145 0.070764 0.408979
0.058064 0.068763 0.437639
0.085318 0.100000 0.432370
0.047838 0.030219 0.425623
0.051957 0.076302 0.106743
0.100237 0.081964 0.055180
0.087267 0.099812 0.140343
0.058908 0.010818 0.001826
0.018076 0.080718 0.028377
0.054897 0.094791 0.118457
0.027613 0.014557 0.057259
0.098967 0.099001 0.098797
0.114796 0.008761 0.037136
0.049900 0.096637 0.049357
0.099918 0.060282 0.099906
0.038513 0.047628 0.005665
0.003069 0.094371 0.136177
0.040632 0.007561 0.156692
0.130710 0.057559 0.140044
0.128973 0.077415 0.142444
0.032598 0.031927 0.196705
0.071340 0.025992 0.196515
0.029306 0.074318 0.184728
0.116642 0.078580 0.182409
0.016504 0.030308 0.242707
0.071282 0.037966 0.238897
0.052641 0.085627 0.242758
0.089429 0.077938 0.246500
0.099981 0.035686 0.300004
0.021763 0.038484 0.298993
0.087615 0.085106 0.300000
0.039837 0.075429 0.313445
0.077432 0.042786 0.413723
0.019605 0.050614 0.398545
0.069267 0.001992 0.360063
0.020414 0.014559 0.368321
0.005711 0.043128 0.094409
0.164257 0.035906 0.001389
0.025235 0.086560 0.054442
0.176090 0.087540 0.137456
0.015742 0.025096 0.101347
0.174315 0.028186 0.134320
0.131127 0.087817 0.054223
0.150356 0.077151 0.053980
0.068929 0.038036 0.100263
0.150863 0.043315 0.046930
0.057054 0.088034 0.083979
0.164705 0.085771 0.079119
0.060153 0.032646 0.143220
0.142305 0.043575 0.142948
0.075442 0.089838 0.156476
0.136382 0.093729 0.139495
0.069360 0.059629 0.202860
0.156694 0.064924 0.200520
0.100026 0.015888 0.199952
0.146461 0.021966 0.193136
0.103345 0.086380 0.267363
0.135215 0.075646 0.269398
0.085160 0.029874 0.264485
0.135318 0.028667 0.272721
0.099958 0.090877 0.342155
0.139053 0.089720 0.343479
0.016905 0.045516 0.346987
0.137201 0.028019 0.359350
0.007668 0.006695 0.475053
0.116323 0.002940 0.477330
0.008231 0.055046 0.477505
0.110150 0.050385 0.445223
0.102158 0.086878 0.144415
0.152840 0.081280 0.106603
0.122803 0.039843 0.100040
0.133732 0.030547 0.029741
0.094314 0.093859 0.021303
0.137978 0.086492 0.024847
0.080450 0.044959 0.139337
0.166809 0.046088 0.119978
0.129721 0.097592 0.065984
0.140153 0.097820 0.122774
0.077706 0.066766 0.057346
0.006788 0.056435 0.041381
0.060317 0.003694 0.071542
0.061812 0.095291 0.019573
0.091693 0.078725 0.094615
0.053288 0.068111 0.015714
0.087220 0.043802 0.169033
0.073884 0.024477 0.169236
0.118638 0.100000 0.162144
0.137455 0.007283 0.178152
0.099738 0.045343 0.224414
0.099999 0.024111 0.201277
0.026708 0.100000 0.221338
0.099859 0.082545 0.221127
0.099982 0.065629 0.292379
0.136103 0.051484 0.285431
0.099476 0.023182 0.281146
0.100928 0.016877 0.299978
0.055329 0.041083 0.378601
0.099233 0.067580 0.382590
0.053608 0.002402 0.396450
0.053883 0.077571 0.393753
0.041004 0.020370 0.096374
0.139025 0.015936 0.101772
0.131802 0.061440 0.099967
0.157113 0.062160 0.112513
0.009678 0.021957 0.030439
0.157101 0.018174 0.048540
0.125097 0.054884 0.030511
0.166008 0.061308 0.001165
0.110203 0.035908 0.004711
0.145933 0.042023 0.099267
0.082091 0.072233 0.135053
0.142963 0.082213 0.096400
0.100000 0.047523 0.135440
0.133109 0.012665 0.136873
0.020391 0.076122 0.136200
0.049409 0.074714 0.056752
0.098948 0.063617 0.177776
0.140686 0.071752 0.181636
0.050661 0.093659 0.200132
0.143472 0.098111 0.196892
0.057039 0.065452 0.243358
0.100046 0.078342 0.199993
0.124678 0.004818 0.239636
0.100005 0.002094 0.199987
0.060128 0.072296 0.347735
0.127023 0.061341 0.330217
0.050150 0.097813 0.325552
0.112485 0.012768 0.333621
0.006299 0.076066 0.436870
0.119418 0.083425 0.436713
0.037867 0.000329 0.440378
0.134585 0.017607 0.422534
0.145338 0.005696 0.067927
0.156666 0.014814 0.098340
0.099752 0.051831 0.077002
0.140983 0.066683 0.013791
0.096816 0.096084 0.054154
0.169670 0.005175 0.014622
0.099847 0.043119 0.059202
0.171816 0.071077 0.128049
0.026001 0.039615 0.055370
0.134661 0.003526 0.011573
0.007557 0.087739 0.006652
0.141325 0.064429 0.064676
0.061587 0.012640 0.093276
0.064064 0.030357 0.100564
0.100022 0.065862 0.131401
0.097908 0.087525 0.081731
0.129013 0.040247 0.176457
0.140616 0.048321 0.189500
0.020962 0.094123 0.179849
0.067568 0.080356 0.172336
0.099964 0.039230 0.200042
0.048041 0.043669 0.232100
0.100020 0.089509 0.200044
0.098899 0.099510 0.241405
0.060821 0.046027 0.314320
0.100004 0.052873 0.299967
0.000158 0.086664 0.292902
0.131658 0.083805 0.303116
0.000601 0.031217 0.433098
0.121206 0.042471 0.400020
0.099934 0.018816 0.399970
0.099990 0.024334 0.380308
0.200027 0.046754 0.100018
0.289977 0.082981 0.034866
0.216455 0.028441 0.100007
0.279744 0.027614 0.047283
0.200451 0.061843 0.100044
0.269580 0.059340 0.099341
0.220433 0.095929 0.058946
0.277762 0.010326 0.005960
0.201192 0.067585 0.053293
0.271610 0.086526 0.100414
0.199961 0.008733 0.100040
0.266553 0.024197 0.108020
0.211714 0.069353 0.140846
0.272549 0.075188 0.137015
0.201759 0.022433 0.142335
0.272555 0.020261 0.133794
0.191628 0.045514 0.177145
0.253829 0.064207 0.145014
0.182307 0.011986 0.175509
0.255316 0.000634 0.144153
0.169501 0.068985 0.241363
0.230231 0.061413 0.181496
0.141016 0.003596 0.238031
0.228582 0.009055 0.180879
0.186569 0.091041 0.337628
0.265747 0.090227 0.348182
0.176763 0.027236 0.345777
0.247818 0.034958 0.354643
0.156695 0.089016 0.457719
0.222686 0.083300 0.434963
0.153029 0.041167 0.456459
0.096874 0.036417 0.500008
0.187637 0.020282 0.100048
0.238990 0.015883 0.035615
0.154623 0.095099 0.099684
0.224270 0.072413 0.021796
0.181006 0.021696 0.041627
0.243795 0.019338 0.089229
0.181018 0.089361 0.013187
0.227603 0.079934 0.061270
0.174486 0.045107 0.076228
0.226818 0.051404 0.098965
0.171278 0.095605 0.056942
0.217429 0.096594 0.100039
0.169457 0.025812 0.096317
0.224677 0.008254 0.100650
0.184611 0.099210 0.130160
0.225495 0.081970 0.092251
0.155055 0.009002 0.145427
0.222419 0.033119 0.139018
0.143692 0.074722 0.151632
0.220432 0.085954 0.137943
0.158776 0.036672 0.208602
0.193379 0.024708 0.191615
0.149897 0.085754 0.206854
0.182708 0.066409 0.179625
0.175296 0.066883 0.284150
0.204742 0.050048 0.299981
0.152246 0.010572 0.284555
0.187871 0.020437 0.299993
0.141475 0.055396 0.368883
0.205432 0.054406 0.358711
0.134513 0.094079 0.383969
0.201073 0.025256 0.387537
0.206811 0.054083 0.013943
0.264473 0.047390 0.069479
0.200017 0.080012 0.100016
0.267150 0.099414 0.053718
0.173438 0.052737 0.044582
0.256809 0.043266 0.111998
0.195087 0.004428 0.063716
0.256458 0.089489 0.099027
0.180879 0.062366 0.081642
0.256610 0.069297 0.060631
0.212252 0.004407 0.030785
0.262084 0.100000 0.073209
0.185645 0.065579 0.143431
0.236347 0.064668 0.097448
0.198120 0.098265 0.148689
0.234265 0.098211 0.132475
0.168149 0.051848 0.162257
0.243729 0.041785 0.137704
0.178894 0.092007 0.171941
0.227562 0.095872 0.169388
0.138878 0.049704 0.237533
0.187106 0.058459 0.225490
0.167698 0.098384 0.215902
0.200003 0.093346 0.200034
0.166280 0.068371 0.353465
0.233779 0.070820 0.324624
0.148202 0.015113 0.318183
0.217750 0.018153 0.326918
0.150546 0.074789 0.412470
0.194125 0.078343 0.398883
0.180250 0.012760 0.424923
0.235549 0.013041 0.404960
0.202980 0.031811 0.099950
0.246375 0.029224 0.011408
0.195091 0.071165 0.099998
0.253529 0.084115 0.035232
0.200006 0.029404 0.077383
0.240126 0.038311 0.061672
0.183428 0.077813 0.038043
0.247183 0.079051 0.115307
0.198323 0.037388 0.043909
0.221999 0.043109 0.055381
0.190761 0.095307 0.104107
0.199990 0.092122 0.099985
0.201095 0.046176 0.136511
0.250637 0.055645 0.019374
0.187989 0.086311 0.071347
0.247713 0.097836 0.099215
0.162957 0.028941 0.160447
0.229763 0.032992 0.165072
0.158300 0.087594 0.164237
0.222638 0.074273 0.163292
0.135900 0.029879 0.226345
0.199988 0.021037 0.200041
0.138655 0.071435 0.225348
0.195726 0.083732 0.188861
0.146914 0.044899 0.316388
0.191375 0.054263 0.316717
0.164701 0.082841 0.308347
0.200003 0.089470 0.299967
0.167187 0.044359 0.396259
0.235467 0.059828 0.394392
0.167714 0.002091 0.378321
0.220923 0.093245 0.363845
0.369391 0.087205 0.101348
0.469633 0.072714 0.091678
0.353793 0.027060 0.099266
0.459720 0.031022 0.093929
0.367843 0.073653 0.027257
0.483449 0.084150 0.049753
0.343832 0.031945 0.045288
0.476637 0.035387 0.052116
0.346022 0.089690 0.100398
0.482402 0.006176 0.006545
0.355100 0.044778 0.006985
0.480807 0.054642 0.009098
0.350811 0.092942 0.138631
0.478653 0.004071 0.120744
0.360830 0.027219 0.132199
0.450212 0.055380 0.129925
0.345160 0.089851 0.188510
0.459586 0.085273 0.159811
0.356437 0.027614 0.174587
0.500630 0.037968 0.099996
0.356172 0.089927 0.259567
0.487922 0.083920 0.319000
0.357687 0.037175 0.250651
0.470636 0.032050 0.162685
0.232526 0.054640 0.225074
0.271595 0.082495 0.222100
0.214013 0.015925 0.229929
0.298520 0.021073 0.212253
0.231403 0.071399 0.277834
0.272250 0.074918 0.287140
0.233821 0.015818 0.289066
0.276999 0.026976 0.285683
0.288802 0.057250 0.059371
0.360764 0.047638 0.079109
0.298864 0.097078 0.100030
0.399831 0.092909 0.099991
0.284113 0.055280 0.019722
0.370450 0.063470 0.106268
0.302917 0.009047 0.053446
0.399388 0.088262 0.101038
0.299935 0.063753 0.099996
0.385457 0.036205 0.048679
0.293303 0.027439 0.088988
0.403345 0.098790 0.044744
0.297020 0.053444 0.133385
0.398153 0.060453 0.073691
0.299615 0.017192 0.099991
0.397507 0.081945 0.060972
0.295586 0.065885 0.173605
0.376359 0.056129 0.140109
0.297205 0.023319 0.146895
0.391559 0.099689 0.137539
0.300016 0.058411 0.203496
0.368227 0.054795 0.205294
0.300794 0.024110 0.195627
0.399427 0.026483 0.201697
0.178094 0.033419 0.231163
0.264651 0.025842 0.176408
0.180434 0.094022 0.230557
0.280056 0.091652 0.149575
0.172606 0.022309 0.254415
0.257001 0.018312 0.220552
0.156148 0.089851 0.264143
0.230987 0.074663 0.230000
0.331460 0.071283 0.088103
0.413269 0.069397 0.100006
0.331939 0.096600 0.079533
0.437260 0.098242 0.081690
0.323055 0.064018 0.100106
0.440594 0.070108 0.053482
0.321776 0.010801 0.099713
0.429391 0.027062 0.052029
0.356003 0.073009 0.057174
0.441221 0.077096 0.005469
0.330676 0.001197 0.040322
0.445974 0.004597 0.031970
0.335708 0.064888 0.125374
0.434803 0.088651 0.119241
0.324508 0.015849 0.119248
0.432695 0.018061 0.138154
0.362705 0.070007 0.163449
0.414555 0.075449 0.154066
0.323856 0.013552 0.160103
0.429718 0.013683 0.183421
0.331040 0.069771 0.230012
0.401789 0.080510 0.199924
0.339392 0.017976 0.217749
0.469074 0.013925 0.282295
0.199986 0.048598 0.200003
0.274409 0.047893 0.166200
0.239152 0.094153 0.206876
0.275416 0.097236 0.182031
0.172196 0.048656 0.269654
0.279457 0.053028 0.246636
0.197386 0.099686 0.267198
0.286388 0.100000 0.251012
0.325150 0.038922 0.083900
0.425715 0.043438 0.077841
0.298277 0.080495 0.076068
0.367248 0.005019 0.064453
0.308632 0.036971 0.017768
0.406600 0.053971 0.024736
0.322964 0.077335 0.039629
0.369524 0.010807 0.015299
0.319933 0.048641 0.055312
0.434081 0.033418 0.100344
0.299973 0.084391 0.100023
0.397523 0.015430 0.096670
0.299990 0.045744 0.100028
0.405180 0.040454 0.125902
0.307018 0.088828 0.127946
0.396013 0.035037 0.100009
0.327789 0.049061 0.143560
0.399961 0.043549 0.174606
0.317886 0.084459 0.161513
0.383647 0.002570 0.168804
0.328820 0.051658 0.186947
0.399696 0.056590 0.239199
0.301992 0.087986 0.200037
0.378407 0.091989 0.216442
0.234336 0.040150 0.195661
0.267120 0.049449 0.206019
0.199987 0.075035 0.200599
0.256085 0.077056 0.182313
0.208625 0.042654 0.259399
0.244823 0.037407 0.256382
0.200348 0.079932 0.250278
0.240955 0.095963 0.252636

CELL_TYPES 512
1
1
1
1
1
1
1
1
1
1
1
1
1
1
1
1
1
1
1
1
1
1
1
1
1
1
1
1
1
1
1
1
1
1
1
1
1
1
1
1
1
1
1
1
1
1
1
1
1
1
1
1
1
1
1
1
1
1
1
1
1
1
1
1
1
1
1
1
1
1
1
1
1
1
1
1
1
1
1
1
1
1
1
1
1
1
1
1
1
1
1
1
1
1
1
1
1
1
1
1
1
1
1
1
1
1
1
1
1
1
1
1
1
1
1
1
1
1
1
1
1
1
1
1
1
1
1
1
1
1
1
1
1
1
1
1
1
1
1
1
1
1
1
1
1
1
1
1
1
1
1
1
1
1
1
1
1
1
1
1
1
1
1
1
1
1
1
1
1
1
1
1
1
1
1
1
1
1
1
1
1
1
1
1
1
1
1
1
1
1
1
1
1
1
1
1
1
1
1
1
1
1
1
1
1
1
1
1
1
1
1
1
1
1
1
1
1
1
1
1
1
1
1
1
1
1
1
1
1
1
1
1
1
1
1
1
1
1
1
1
1
1
1
1
1
1
1
1
1
1
1
1
1
1
1
1
1
1
1
1
1
1
1
1
1
1
1
1
1
1
1
1
1
1
1
1
1
1
1
1
1
1
1
1
1
1
1
1
1
1
1
1
1
1
1
1
1
1
1
1
1
1
1
1
1
1
1
1
1
1
1
1
1
1
1
1
1
1
1
1
1
1
1
1
1
1
1
1
1
1
1
1
1
1
1
1
1
1
1
1
1
1
1
1
1
1
1
1
1
1
1
1
1
1
1
1
1
1
1
1
1
1
1
1
1
1
1
1
1
1
1
1
1
1
1
1
1
1
1
1
1
1
1
1
1
1
1
1
1
1
1
1
1
1
1
1
1
1
1
1
1
1
1
1
1
1
1
1
1
1
1
1
1
1
1
1
1
1
1
1
1
1
1
1
1
1
1
1
1
1
1
1
1
1
1
1
1
1
1
1
1
1
1
1
1
1
1
1
1
1
1
1
1
1
1
1
1
1
1
1
1
1
1
1
1
1
1
1
1
1
1
1
1
1
1
1
1
1
1
1
1
1
1
1
1
1
1
1
1
1
1
1
1
1
1
1
1
1
1
1
1
1
1
1
1
1
1
1
1
1
1
1

POINT_DATA 512
SCALARS radius float
LOOKUP_TABLE default
0.5
0.5
0.5
0.5
0.5
0.5
0.5
0.5
0.5
0.5
0.5
0.5
0.5
0.5
0.5
0.5
0.5
0.5
0.5
0.5
0.5
0.5
0.5
0.5
0.5
0.5
0.5
0.5
0.5
0.5
0.5
0.5
0.5
0.5
0.5
0.5
0.5
0.5
0.5
0.5
0.5
0.5
0.5
0.5
0.5
0.5
0.5
0.5
0.5
0.5
0.5
0.5
0.5
0.5
0.5
0.5
0.5
0.5
0.5
0.5
0.5
0.5
0.5
0.5
0.5
0.5
0.5
0.5
0.5
0.5
0.5
0.5
0.5
0.5
0.5
0.5
0.5
0.5
0.5
0.5
0.5
0.5
0.5
0.5
0.5
0.5
0.5
0.5
0.5
0.5
0.5
0.5
0.5
0.5
0.5
0.5
0.5
0.5
0.5
0.5
0.5
0.5
0.5
0.5
0.5
0.5
0.5
0.5
0.5
0.5
0.5
0.5
0.5
0.5
0.5
0.5
0.5
0.5
0.5
0.5
0.5
0.5
0.5
0.5
0.5
0.5
0.5
0.5
0.5
0.5
0.5
0.5
0.5
0.5
0.5
0.5
0.5
0.5
0.5
0.5
0.5
0.5
0.5
0.5
0.5
0.5
0.5
0.5
0.5
0.5
0.5
0.5
0.5
0.5
0.5
0.5
0.5
0.5
0.5
0.5
0.5
0.5
0.5
0.5
0.5
0.5
0.5
0.5
0.5
0.5
0.5
0.5
0.5
0.5
0.5
0.5
0.5
0.5
0.5
0.5
0.5
0.5
0.5
0.5
0.5
0.5
0.5
0.5
0.5
0.5
0.5
0.5
0.5
0.5
0.5
0.5
0.5
0.5
0.5
0.5
0.5
0.5
0.5
0.5
0.5
0.5
0.5
0.5
0.5
0.5
0.5
0.5
0.5
0.5
0.5
0.5
0.5
0.5
0.5
0.5
0.5
0.5
0.5
0.5
0.5
0.5
0.5
0.5
0.5
0.5
0.5
0.5
0.5
0.5
0.5
0.5
0.5
0.5
0.5
0.5
0.5
0.5
0.5
0.5
0.5
0.5
0.5
0.5
0.5
0.5
0.5
0.5
0.5
0.5
0.5
0.5
0.5
0.5
0.5
0.5
0.5
0.5
0.5
0.5
0.5
0.5
0.5
0.5
0.5
0.5
0.5
0.5
0.5
0.5
0.5
0.5
0.5
0.5
0.5
0.5
0.5
0.5
0.5
0.5
0.5
0.5
0.5
0.5
0.5
0.5
0.5
0.5
0.5
0.5
0.5
0.5
0.5
0.5
0.5
0.5
0.5
0.5
0.5
0.5
0.5
0.5
0.5
0.5
0.5
0.5
0.5
0.5
0.5
0.5
0.5
0.5
0.5
0.5
0.5
0.5
0.5
0.5
0.5
0.5
0.5
0.5
0.5
0.5
0.5
0.5
0.5
0.5
0.5
0.5
0.5
0.5
0.5
0.5
0.5
0.5
0.5
0.5
0.5
0.5
0.5
0.5
0.5
0.5
0.5
0.5
0.5
0.5
0.5
0.5
0.5
0.5
0.5
0.5
0.5
0.5
0.5
0.5
0.5
0.5
0.5
0.5
0.5
0.5
0.5
0.5
0.5
0.5
0.5
0.5
0.5
0.5
0.5
0.5
0.5
0.5
0.5
0.5
0.5
0.5
0.5
0.5
0.5
0.5
0.5
0.5
0.5
0.5
0.5
0.5
0.5
0.5
0.5
0.5
0.5
0.5
0.5
0.5
0.5
0.5
0.5
0.5
0.5
0.5
0.5
0.5
0.5
0.5
0.5
0.5
0.5
0.5
0.5
0.5
0.5
0.5
0.5
0.5
0.5
0.5
0.5
0.5
0.5
0.5
0.5
0.5
0.5
0.5
0.5
0.5
0.5
0.5
0.5
0.5
0.5
0.5
0.5
0.5
0.5
0.5
0.5
0.5
0.5
0.5
0.5
0.5
0.5
0.5
0.5
0.5
0.5
0.5
0.5
0.5
0.5
0.5
0.5
0.5
0.5
0.5
0.5
0.5
0.5
0.5
0.5
0.5
0.5
0.5
0.5
0.5
0.5
0.5
0.5
0.5
0.5
0.5
0.5
0.5
0.5
0.5
0.5
0.5
0.5
0.5
0.5
0.5
0.5
0.5
0.5
0.5
0.5
0.5
0.5
0.5
0.5
0.5
0.5
0.5
0.5
0.5
0.5
0.5
0.5
0.5
0.5
0.5
0.5
0.5
