# vtk DataFile Version 2.0
Title Data
ASCII
DATASET UNSTRUCTURED_GRID
POINTS 512 float
0.065813 0.096547 0.065810
0.096577 0.095616 0.055997
0.060301 0.037747 0.062923
0.096376 0.041078 0.055159
0.056045 0.095572 0.096393
0.001561 0.085593 0.002127
0.054933 0.041165 0.095954
0.005493 0.040737 0.005664
0.080733 0.050116 0.120800
0.022496 0.047009 0.116574
0.080206 0.096931 0.116375
0.028279 0.095994 0.106886
0.079855 0.061381 0.162418
0.020314 0.055818 0.156902
0.076908 0.094177 0.157881
0.031359 0.093589 0.151549
0.072602 0.074896 0.232903
0.018868 0.073673 0.228304
0.071421 0.028354 0.226104
0.005494 0.025388 0.216484
0.072252 0.079552 0.315566
0.021648 0.079066 0.308972
0.070859 0.030283 0.310059
0.021277 0.030494 0.304463
0.095196 0.000528 0.550079
0.041582 0.001435 0.550731
0.096722 0.056398 0.542085
0.041815 0.057669 0.542062
0.080207 0.004246 0.637924
0.035752 0.005989 0.642525
0.080739 0.059791 0.635574
0.037023 0.060892 0.639665
0.068966 0.064746 0.069391
0.011302 0.051920 0.069951
0.078436 0.098968 0.078126
0.001919 0.002792 0.074795
0.070142 0.052715 0.010938
0.023580 0.049588 0.023842
0.073477 0.003163 0.004147
0.012337 0.099374 0.012842
0.074349 0.099459 0.038317
0.010869 0.007930 0.043786
0.063272 0.068675 0.029902
0.099564 0.072056 0.041441
0.062253 0.002338 0.126321
0.097237 0.099631 0.124151
0.050852 0.056865 0.123983
0.098153 0.061417 0.121674
0.061371 0.040260 0.181435
0.099907 0.037283 0.177046
0.076587 0.011630 0.169653
0.098491 0.008215 0.170712
0.058464 0.033520 0.251333
0.007013 0.030609 0.247845
0.049371 0.089126 0.233690
0.096591 0.093934 0.235806
0.084854 0.080711 0.469335
0.038325 0.080298 0.473068
0.085240 0.037142 0.463523
0.038111 0.039159 0.469496
0.085823 0.065696 0.566467
0.019563 0.065431 0.569613
0.082478 0.014892 0.582891
0.012273 0.016470 0.585207
0.048065 0.055970 0.049822
0.091682 0.065817 0.045591
0.054125 0.031906 0.046060
0.087085 0.017900 0.045331
0.045455 0.064933 0.091822
0.100018 0.061358 0.099867
0.045069 0.017735 0.087383
0.099209 0.015371 0.099235
0.074817 0.042046 0.100652
0.011536 0.040725 0.097035
0.070057 0.084742 0.110409
0.013491 0.083262 0.103141
0.084299 0.035989 0.144925
0.020251 0.036899 0.141476
0.047204 0.079177 0.163982
0.098155 0.076029 0.160926
0.082965 0.073261 0.200690
0.015831 0.070382 0.197551
0.083057 0.098729 0.208927
0.030811 0.003887 0.204157
0.081741 0.062847 0.286504
0.030055 0.063007 0.276267
0.074774 0.007132 0.284957
0.028507 0.010935 0.276592
0.085832 0.091158 0.529053
0.030404 0.090160 0.532033
0.086875 0.034664 0.516921
0.028572 0.033420 0.516842
0.087933 0.095091 0.598552
0.043723 0.094108 0.604723
0.085228 0.039992 0.608264
0.037852 0.040996 0.610168
0.092634 0.087381 0.093141
0.024466 0.084204 0.075983
0.093102 0.007836 0.091264
0.028463 0.033097 0.078624
0.075711 0.083784 0.024565
0.025261 0.077630 0.025571
0.078584 0.032996 0.028905
0.030379 0.032540 0.030256
0.052875 0.020401 0.101659
0.099204 0.021324 0.093436
0.057671 0.077805 0.084612
0.099592 0.071920 0.083671
0.052785 0.022486 0.140053
0.098121 0.021857 0.138389
0.076675 0.083136 0.140520
0.010585 0.080313 0.135419
0.071023 0.047288 0.207413
0.023786 0.042906 0.200566
0.078581 0.090037 0.189249
0.015323 0.090223 0.189653
0.058571 0.049694 0.267139
0.005674 0.052725 0.257340
0.067985 0.093170 0.268800
0.022093 0.088962 0.262587
0.089752 0.068933 0.505282
0.034798 0.069290 0.507817
0.082659 0.006984 0.496388
0.039478 0.009842 0.497213
0.080449 0.075102 0.591183
0.026412 0.077157 0.593994
0.076351 0.032499 0.557245
0.025769 0.033601 0.560241
0.120426 0.049945 0.080928
0.162199 0.061329 0.080115
0.116170 0.096972 0.080554
0.157464 0.094199 0.077238
0.116312 0.047009 0.023076
0.156628 0.055825 0.020733
0.106679 0.095935 0.028624
0.151300 0.093586 0.031657
0.105420 0.057019 0.105613
0.152716 0.061609 0.111024
0.099059 0.099771 0.099050
0.156185 0.096393 0.110768
0.110694 0.061624 0.152961
0.149828 0.063563 0.150176
0.110605 0.096376 0.156680
0.146624 0.005003 0.146936
0.108650 0.082520 0.210639
0.147593 0.079733 0.210037
0.107846 0.033538 0.212615
0.146915 0.033685 0.202665
0.105663 0.087837 0.287495
0.146999 0.089243 0.287578
0.101692 0.038091 0.292381
0.144208 0.036227 0.289970
0.119626 0.006056 0.550748
0.166694 0.007186 0.547868
0.117347 0.062436 0.544269
0.163881 0.059716 0.542126
0.103255 0.013327 0.648928
0.148530 0.012906 0.641982
0.101722 0.064498 0.646438
0.146414 0.064185 0.635963
0.038234 0.099202 0.075348
0.126352 0.002229 0.062449
0.029544 0.068465 0.063611
0.123828 0.056689 0.051132
0.043661 0.007631 0.010824
0.123506 0.100000 0.097561
0.041200 0.072199 0.099600
0.121464 0.061421 0.098277
0.043171 0.013050 0.051246
0.120661 0.012051 0.040938
0.042143 0.092133 0.042051
0.118954 0.073168 0.037815
0.040508 0.011993 0.120912
0.116970 0.016025 0.117152
0.037376 0.073413 0.118956
0.118108 0.069934 0.118407
0.045355 0.055861 0.172770
0.111431 0.050167 0.173860
0.038557 0.012374 0.165100
0.113534 0.022698 0.166944
0.043102 0.051974 0.227928
0.113949 0.047311 0.231117
0.040232 0.008585 0.233778
0.114222 0.097963 0.231830
0.102542 0.081772 0.487954
0.148252 0.082615 0.480000
0.097015 0.041902 0.480811
0.141119 0.039166 0.473970
0.060145 0.068648 0.573876
0.130341 0.073479 0.574041
0.057531 0.021886 0.587865
0.131836 0.018292 0.579133
0.099981 0.042045 0.075092
0.144759 0.035695 0.084678
0.110057 0.084607 0.071251
0.163705 0.079160 0.047446
0.097091 0.040814 0.011520
0.141359 0.036898 0.020671
0.103005 0.083367 0.013484
0.160606 0.075962 0.098256
0.079628 0.051460 0.078269
0.148757 0.046287 0.065014
0.089597 0.097659 0.090065
0.142368 0.091470 0.097190
0.064553 0.046205 0.149111
0.143048 0.040002 0.143380
0.096998 0.091441 0.142639
0.140881 0.083086 0.141163
0.054858 0.081319 0.198277
0.134222 0.079218 0.180162
0.077878 0.019095 0.203164
0.137184 0.013306 0.194017
0.071376 0.075862 0.271636
0.136520 0.077730 0.250058
0.089448 0.026010 0.262099
0.148454 0.022415 0.251505
0.073426 0.095739 0.548920
0.146060 0.093897 0.539793
0.066649 0.037539 0.530255
0.136490 0.040135 0.526225
0.115050 0.001114 0.607476
0.156502 0.001550 0.602956
0.118667 0.043447 0.612579
0.171103 0.044154 0.609717
0.101173 0.019816 0.052659
0.139766 0.022638 0.053119
0.083792 0.077786 0.057321
0.140849 0.082316 0.076920
0.092120 0.020060 0.099123
0.138127 0.021931 0.098240
0.083083 0.071928 0.099539
0.135156 0.080342 0.011032
0.084651 0.026191 0.085783
0.132800 0.027849 0.094087
0.053455 0.085783 0.053385
0.130259 0.080947 0.059287
0.093864 0.027935 0.133105
0.130456 0.030035 0.130648
0.058674 0.080004 0.130967
0.122611 0.088600 0.122732
0.091705 0.054521 0.192650
0.128529 0.057918 0.191308
0.056630 0.007267 0.184563
0.115525 0.099736 0.186612
0.090607 0.061968 0.242553
0.124735 0.057415 0.258617
0.078407 0.097000 0.241971
0.122150 0.009438 0.254185
0.074809 0.076508 0.523122
0.134784 0.078151 0.516440
0.109073 0.017107 0.510428
0.152536 0.018369 0.504973
0.104584 0.079678 0.599176
0.157270 0.080649 0.591513
0.100036 0.039574 0.576021
0.144121 0.042136 0.572631
0.232599 0.075159 0.072897
0.315220 0.079550 0.072727
0.225831 0.028324 0.071677
0.309645 0.030247 0.071338
0.228012 0.073672 0.019173
0.308697 0.079069 0.021973
0.216186 0.025425 0.005927
0.304199 0.030514 0.021658
0.210264 0.082525 0.108946
0.287387 0.087816 0.106113
0.212246 0.033557 0.108152
0.292245 0.038150 0.102055
0.209731 0.079729 0.147988
0.287220 0.089238 0.147465
0.202325 0.033667 0.147225
0.289632 0.036222 0.144649
0.191352 0.074665 0.191724
0.264586 0.078897 0.203073
0.192739 0.022140 0.193121
0.267344 0.024369 0.191871
0.203536 0.079231 0.264140
0.236411 0.080882 0.231599
0.192291 0.024612 0.266913
0.239867 0.030055 0.225904
0.227434 0.006796 0.545354
0.297778 0.011197 0.547352
0.217513 0.057359 0.536318
0.289990 0.057685 0.542842
0.218913 0.009188 0.634080
0.270180 0.009860 0.627697
0.213578 0.063920 0.632177
0.261495 0.061529 0.621659
0.181133 0.040288 0.061683
0.251117 0.033504 0.058650
0.169383 0.011720 0.076748
0.233405 0.089110 0.049693
0.176721 0.037336 0.000087
0.247482 0.030623 0.007300
0.170443 0.008284 0.098675
0.235434 0.094119 0.096832
0.172705 0.055796 0.045641
0.227623 0.051955 0.043497
0.164900 0.012394 0.038881
0.233478 0.008569 0.040621
0.173448 0.050114 0.111757
0.230778 0.047507 0.114259
0.166634 0.022599 0.113734
0.231499 0.097955 0.114558
0.161361 0.038638 0.161739
0.218501 0.049539 0.157557
0.157820 0.095326 0.158110
0.216527 0.098776 0.154613
0.157169 0.049470 0.218904
0.197343 0.038580 0.197694
0.154268 0.098775 0.216947
0.199862 0.078482 0.200637
0.201132 0.081301 0.477070
0.250648 0.083999 0.478091
0.195739 0.037524 0.470813
0.245879 0.044321 0.474970
0.183900 0.070031 0.566693
0.245674 0.074286 0.563828
0.178162 0.025303 0.571361
0.244601 0.045716 0.571894
0.200426 0.073270 0.083209
0.286120 0.062772 0.081929
0.208849 0.098665 0.083338
0.284431 0.007160 0.074942
0.197336 0.070415 0.016167
0.275963 0.062997 0.030358
0.203844 0.003888 0.031211
0.276334 0.010786 0.028757
0.197989 0.081353 0.055239
0.271349 0.075843 0.071871
0.202734 0.019080 0.078465
0.261716 0.025909 0.089800
0.179827 0.079214 0.134581
0.249703 0.077745 0.136943
0.193683 0.013302 0.137555
0.251135 0.022446 0.148692
0.177005 0.070093 0.177402
0.259998 0.063527 0.171754
0.188100 0.000485 0.188469
0.239017 0.013255 0.184258
0.171369 0.063537 0.260579
0.222168 0.067384 0.221846
0.184833 0.013487 0.239458
0.221538 0.004268 0.219554
0.198967 0.094212 0.538239
0.268738 0.093647 0.529408
0.187386 0.039764 0.525167
0.257300 0.039252 0.525371
0.197727 0.100000 0.595840
0.243583 0.000671 0.594262
0.215200 0.040653 0.602652
0.288233 0.038013 0.592004
0.207230 0.047269 0.071213
0.266734 0.050009 0.059116
0.189009 0.090030 0.078985
0.268493 0.093272 0.068306
0.200307 0.042920 0.024050
0.257161 0.052678 0.006191
0.189396 0.090243 0.015682
0.262254 0.088969 0.022388
0.192373 0.054482 0.092037
0.242181 0.061860 0.091019
0.184206 0.007013 0.057256
0.241572 0.097092 0.078985
0.190971 0.057898 0.128862
0.258343 0.057382 0.125127
0.186221 0.099736 0.115750
0.253812 0.009447 0.122548
0.176579 0.045285 0.176882
0.231385 0.049505 0.181524
0.172541 0.097742 0.172981
0.230868 0.089164 0.176467
0.180990 0.049821 0.231913
0.213838 0.043348 0.215704
0.175780 0.089202 0.231451
0.203332 0.098992 0.204628
0.186356 0.078402 0.514220
0.243756 0.074467 0.517287
0.201545 0.019551 0.503707
0.244917 0.015723 0.501288
0.210825 0.077967 0.584712
0.283165 0.081514 0.581192
0.205914 0.032055 0.565683
0.261747 0.020138 0.566259
0.551337 0.000160 0.095090
0.638839 0.004157 0.079396
0.543039 0.057894 0.096287
0.636677 0.059817 0.079909
0.551706 0.001431 0.040684
0.643607 0.005997 0.034993
0.543103 0.057671 0.041022
0.640766 0.060872 0.036242
0.551721 0.006187 0.118899
0.650126 0.013436 0.102520
0.545034 0.062062 0.116703
0.647764 0.064452 0.101070
0.548968 0.007132 0.165863
0.643131 0.012905 0.147802
0.543139 0.059738 0.163063
0.637146 0.064183 0.145642
0.546901 0.006769 0.226596
0.635482 0.009205 0.218075
0.537750 0.057360 0.216688
0.633466 0.063914 0.212727
0.548758 0.011267 0.297132
0.630096 0.009936 0.269274
0.544562 0.057676 0.289203
0.623150 0.061526 0.260602
0.274580 0.076392 0.275563
0.335970 0.082237 0.274915
0.269026 0.029055 0.270481
0.346410 0.033255 0.266194
0.273418 0.082219 0.335746
0.335449 0.082637 0.334958
0.264997 0.033247 0.347054
0.333116 0.032733 0.332244
0.469935 0.080694 0.084214
0.567699 0.065494 0.085160
0.464293 0.037000 0.084681
0.584496 0.015259 0.081950
0.474113 0.080286 0.037633
0.570789 0.065403 0.018719
0.470516 0.039173 0.037428
0.586344 0.016430 0.011349
0.489094 0.081872 0.101958
0.574558 0.068940 0.059362
0.482214 0.042315 0.096263
0.588659 0.021847 0.056632
0.480805 0.082606 0.147511
0.574994 0.073517 0.129606
0.474791 0.039148 0.140335
0.580175 0.018288 0.131130
0.479940 0.081253 0.200482
0.567870 0.070052 0.183160
0.473913 0.037517 0.195150
0.572350 0.025453 0.177288
0.479984 0.083990 0.249893
0.565385 0.074265 0.244830
0.476897 0.044336 0.245106
0.573500 0.045716 0.243761
0.234401 0.049341 0.251202
0.287989 0.043708 0.214670
0.232290 0.008051 0.247545
0.298951 0.099227 0.195109
0.213024 0.043623 0.289588
0.287596 0.038716 0.288666
0.194144 0.098970 0.299429
0.284604 0.088793 0.285649
0.530038 0.091187 0.085291
0.599709 0.095096 0.087271
0.518051 0.034517 0.086369
0.610027 0.040302 0.084242
0.532996 0.090149 0.029551
0.605828 0.094082 0.042957
0.517812 0.033466 0.027626
0.611203 0.040983 0.037213
0.549814 0.095971 0.072385
0.608716 0.001176 0.114479
0.531071 0.037186 0.065723
0.613348 0.043376 0.117816
0.540615 0.093895 0.145267
0.604073 0.001545 0.155764
0.526963 0.040130 0.135851
0.610906 0.044136 0.170237
0.539377 0.094220 0.198040
0.597079 0.100000 0.197067
0.526314 0.039737 0.186725
0.604000 0.040686 0.214343
0.531157 0.093645 0.267980
0.596017 0.000709 0.243010
0.527110 0.039250 0.256517
0.593772 0.038031 0.287363
0.255858 0.073391 0.256383
0.328733 0.070205 0.221824
0.264019 0.009784 0.261902
0.311713 0.017360 0.250462
0.220265 0.070201 0.329494
0.309919 0.068374 0.309796
0.249493 0.017409 0.312319
0.309609 0.011010 0.308796
0.506285 0.068678 0.089038
0.592487 0.075094 0.079553
0.496731 0.006812 0.081756
0.558302 0.032693 0.075408
0.508780 0.069530 0.033950
0.595185 0.077165 0.025717
0.498261 0.010017 0.038780
0.561203 0.033614 0.024683
0.524079 0.076099 0.073708
0.600258 0.079533 0.104170
0.511710 0.017097 0.108325
0.576645 0.039634 0.099586
0.517302 0.078157 0.134132
0.592678 0.080640 0.156430
0.505752 0.018369 0.151802
0.573679 0.042169 0.143372
0.515598 0.078657 0.185869
0.586077 0.077936 0.209897
0.504960 0.019643 0.200756
0.567151 0.031880 0.205019
0.518894 0.074446 0.242979
0.582904 0.081284 0.282336
0.503046 0.015713 0.244157
0.567992 0.020146 0.260832
0.259433 0.048535 0.255168
0.303999 0.058100 0.250399
0.248249 0.093635 0.251243
0.291936 0.095202 0.234705
0.249236 0.058043 0.304007
0.297057 0.050253 0.297689
0.233811 0.095436 0.293351
0.293071 0.000031 0.293658

CELL_TYPES 512
1
1
1
1
1
1
1
1
1
1
1
1
1
1
1
1
1
1
1
1
1
1
1
1
1
1
1
1
1
1
1
1
1
1
1
1
1
1
1
1
1
1
1
1
1
1
1
1
1
1
1
1
1
1
1
1
1
1
1
1
1
1
1
1
1
1
1
1
1
1
1
1
1
1
1
1
1
1
1
1
1
1
1
1
1
1
1
1
1
1
1
1
1
1
1
1
1
1
1
1
1
1
1
1
1
1
1
1
1
1
1
1
1
1
1
1
1
1
1
1
1
1
1
1
1
1
1
1
1
1
1
1
1
1
1
1
1
1
1
1
1
1
1
1
1
1
1
1
1
1
1
1
1
1
1
1
1
1
1
1
1
1
1
1
1
1
1
1
1
1
1
1
1
1
1
1
1
1
1
1
1
1
1
1
1
1
1
1
1
1
1
1
1
1
1
1
1
1
1
1
1
1
1
1
1
1
1
1
1
1
1
1
1
1
1
1
1
1
1
1
1
1
1
1
1
1
1
1
1
1
1
1
1
1
1
1
1
1
1
1
1
1
1
1
1
1
1
1
1
1
1
1
1
1
1
1
1
1
1
1
1
1
1
1
1
1
1
1
1
1
1
1
1
1
1
1
1
1
1
1
1
1
1
1
1
1
1
1
1
1
1
1
1
1
1
1
1
1
1
1
1
1
1
1
1
1
1
1
1
1
1
1
1
1
1
1
1
1
1
1
1
1
1
1
1
1
1
1
1
1
1
1
1
1
1
1
1
1
1
1
1
1
1
1
1
1
1
1
1
1
1
1
1
1
1
1
1
1
1
1
1
1
1
1
1
1
1
1
1
1
1
1
1
1
1
1
1
1
1
1
1
1
1
1
1
1
1
1
1
1
1
1
1
1
1
1
1
1
1
1
1
1
1
1
1
1
1
1
1
1
1
1
1
1
1
1
1
1
1
1
1
1
1
1
1
1
1
1
1
1
1
1
1
1
1
1
1
1
1
1
1
1
1
1
1
1
1
1
1
1
1
1
1
1
1
1
1
1
1
1
1
1
1
1
1
1
1
1
1
1
1
1
1
1
1
1
1
1
1
1
1
1
1
1
1
1
1
1
1
1
1
1
1
1
1
1
1
1
1
1
1
1
1
1
1
1
1
1
1
1
1
1

POINT_DATA 512
SCALARS radius float
LOOKUP_TABLE default
0.5
0.5
0.5
0.5
0.5
0.5
0.5
0.5
0.5
0.5
0.5
0.5
0.5
0.5
0.5
0.5
0.5
0.5
0.5
0.5
0.5
0.5
0.5
0.5
0.5
0.5
0.5
0.5
0.5
0.5
0.5
0.5
0.5
0.5
0.5
0.5
0.5
0.5
0.5
0.5
0.5
0.5
0.5
0.5
0.5
0.5
0.5
0.5
0.5
0.5
0.5
0.5
0.5
0.5
0.5
0.5
0.5
0.5
0.5
0.5
0.5
0.5
0.5
0.5
0.5
0.5
0.5
0.5
0.5
0.5
0.5
0.5
0.5
0.5
0.5
0.5
0.5
0.5
0.5
0.5
0.5
0.5
0.5
0.5
0.5
0.5
0.5
0.5
0.5
0.5
0.5
0.5
0.5
0.5
0.5
0.5
0.5
0.5
0.5
0.5
0.5
0.5
0.5
0.5
0.5
0.5
0.5
0.5
0.5
0.5
0.5
0.5
0.5
0.5
0.5
0.5
0.5
0.5
0.5
0.5
0.5
0.5
0.5
0.5
0.5
0.5
0.5
0.5
0.5
0.5
0.5
0.5
0.5
0.5
0.5
0.5
0.5
0.5
0.5
0.5
0.5
0.5
0.5
0.5
0.5
0.5
0.5
0.5
0.5
0.5
0.5
0.5
0.5
0.5
0.5
0.5
0.5
0.5
0.5
0.5
0.5
0.5
0.5
0.5
0.5
0.5
0.5
0.5
0.5
0.5
0.5
0.5
0.5
0.5
0.5
0.5
0.5
0.5
0.5
0.5
0.5
0.5
0.5
0.5
0.5
0.5
0.5
0.5
0.5
0.5
0.5
0.5
0.5
0.5
0.5
0.5
0.5
0.5
0.5
0.5
0.5
0.5
0.5
0.5
0.5
0.5
0.5
0.5
0.5
0.5
0.5
0.5
0.5
0.5
0.5
0.5
0.5
0.5
0.5
0.5
0.5
0.5
0.5
0.5
0.5
0.5
0.5
0.5
0.5
0.5
0.5
0.5
0.5
0.5
0.5
0.5
0.5
0.5
0.5
0.5
0.5
0.5
0.5
0.5
0.5
0.5
0.5
0.5
0.5
0.5
0.5
0.5
0.5
0.5
0.5
0.5
0.5
0.5
0.5
0.5
0.5
0.5
0.5
0.5
0.5
0.5
0.5
0.5
0.5
0.5
0.5
0.5
0.5
0.5
0.5
0.5
0.5
0.5
0.5
0.5
0.5
0.5
0.5
0.5
0.5
0.5
0.5
0.5
0.5
0.5
0.5
0.5
0.5
0.5
0.5
0.5
0.5
0.5
0.5
0.5
0.5
0.5
0.5
0.5
0.5
0.5
0.5
0.5
0.5
0.5
0.5
0.5
0.5
0.5
0.5
0.5
0.5
0.5
0.5
0.5
0.5
0.5
0.5
0.5
0.5
0.5
0.5
0.5
0.5
0.5
0.5
0.5
0.5
0.5
0.5
0.5
0.5
0.5
0.5
0.5
0.5
0.5
0.5
0.5
0.5
0.5
0.5
0.5
0.5
0.5
0.5
0.5
0.5
0.5
0.5
0.5
0.5
0.5
0.5
0.5
0.5
0.5
0.5
0.5
0.5
0.5
0.5
0.5
0.5
0.5
0.5
0.5
0.5
0.5
0.5
0.5
0.5
0.5
0.5
0.5
0.5
0.5
0.5
0.5
0.5
0.5
0.5
0.5
0.5
0.5
0.5
0.5
0.5
0.5
0.5
0.5
0.5
0.5
0.5
0.5
0.5
0.5
0.5
0.5
0.5
0.5
0.5
0.5
0.5
0.5
0.5
0.5
0.5
0.5
0.5
0.5
0.5
0.5
0.5
0.5
0.5
0.5
0.5
0.5
0.5
0.5
0.5
0.5
0.5
0.5
0.5
0.5
0.5
0.5
0.5
0.5
0.5
0.5
0.5
0.5
0.5
0.5
0.5
0.5
0.5
0.5
0.5
0.5
0.5
0.5
0.5
0.5
0.5
0.5
0.5
0.5
0.5
0.5
0.5
0.5
0.5
0.5
0.5
0.5
0.5
0.5
0.5
0.5
0.5
0.5
0.5
0.5
0.5
0.5
0.5
0.5
0.5
0.5
0.5
0.5
0.5
0.5
0.5
0.5
0.5
0.5
0.5
0.5
0.5
0.5
0.5
0.5
0.5
0.5
0.5
0.5
0.5
0.5
0.5
0.5
0.5
0.5
0.5
0.5
0.5
0.5
0.5
0.5
0.5
0.5
0.5
0.5
