# vtk DataFile Version 2.0
Title Data
ASCII
DATASET UNSTRUCTURED_GRID
POINTS 360 float
0.548952 0.016596 0.395376
0.677532 0.055467 0.562563
0.045824 0.099980 0.331469
0.099951 0.026826 0.300004
0.733080 0.001444 0.556188
0.667420 0.168176 0.567851
0.294710 0.099347 0.099297
0.169359 0.050381 0.408482
0.420035 0.100050 0.717305
0.600987 0.092396 0.626607
0.063757 0.016660 0.306045
0.427627 0.002019 0.491811
0.289442 0.002236 0.522002
0.451286 0.090315 0.684068
0.291296 0.073673 0.467220
0.564244 0.072854 0.744764
0.573226 0.002122 0.783976
0.647279 0.045142 0.735314
0.002122 0.097560 0.300995
0.219850 0.030946 0.537083
0.148427 0.049950 0.483985
0.400431 0.100026 0.710394
0.093416 0.099820 0.406528
0.422182 0.100013 0.759474
0.182243 0.090791 0.395013
0.399949 0.005078 0.251056
0.368023 0.017432 0.010599
0.329997 0.052094 0.373069
0.407028 0.101323 0.199838
0.333084 0.099880 0.392712
0.125259 0.099272 0.429848
0.586001 0.004102 0.542625
0.184609 0.002041 0.215032
0.633742 0.046282 0.502613
0.532530 0.061617 0.399991
0.400532 0.025337 0.784777
0.387896 0.023756 0.685573
0.530186 0.099937 0.759181
0.394147 0.099456 0.448424
0.399731 0.099779 0.797090
0.608349 0.137081 0.700940
0.649475 0.116391 0.676778
0.393211 0.099853 0.775609
0.298371 0.017261 0.614785
0.189763 0.065534 0.507201
0.385259 0.099847 0.670523
0.466704 0.074615 0.612782
0.452214 0.096630 0.734522
0.399321 0.026356 0.182772
0.378924 0.099567 0.393915
0.183821 0.099985 0.349782
0.398098 0.035119 0.142886
0.214497 0.056261 0.437329
0.616756 0.093229 0.561217
0.162742 0.099974 0.407483
0.477627 0.099786 0.450051
0.583431 0.014906 0.622431
0.230338 0.015689 0.399287
0.157072 0.100142 0.453312
0.158948 0.133624 0.399156
0.395282 0.099944 0.499411
0.350809 0.099197 0.477741
0.639645 0.031045 0.686577
0.358452 0.050922 0.400176
0.399249 0.099985 0.746978
0.644692 0.099341 0.746206
0.394205 0.042505 0.598820
0.308112 0.054789 0.672018
0.099689 0.098324 0.662027
0.338762 0.099916 0.595389
0.185200 0.099835 0.799078
0.092469 0.099862 0.491246
0.091915 0.099869 0.307776
0.484393 0.104032 0.190626
0.056874 0.069950 0.300771
0.147453 0.099300 0.198762
0.247923 0.099595 0.358734
0.099272 0.099989 0.099940
0.164039 0.099999 0.171285
0.163775 0.059091 0.445327
0.204967 0.052874 0.399780
0.193311 0.099743 0.265345
0.602295 0.059860 0.701042
0.434301 0.099803 0.473100
0.103913 0.099913 0.371446
0.302530 0.099876 0.431146
0.080850 0.066111 0.377025
0.393626 0.047440 0.485941
0.140402 0.089641 0.383101
0.099913 0.027847 0.698433
0.099540 0.097941 0.699279
0.099210 0.048023 0.471992
0.056130 0.099840 0.436927
0.296937 0.099640 0.665766
0.436240 0.137013 0.692779
0.156756 0.099667 0.551473
0.296527 0.099269 0.361928
0.597521 0.014551 0.482454
0.210496 0.064416 0.361947
0.462971 0.099943 0.390885
0.399831 0.082946 0.138635
0.270105 0.099532 0.399947
0.563824 0.099780 0.373039
0.667327 0.081636 0.469544
0.285769 0.034543 0.399924
0.410875 0.064087 0.516989
0.200233 0.099734 0.418488
0.576503 0.078338 0.665902
0.441277 0.141187 0.751086
0.387228 0.099765 0.549788
0.204238 0.099763 0.454080
0.499558 0.180199 0.693436
0.482589 0.000972 0.630244
0.513266 0.135265 0.656715
0.499777 0.104821 0.749530
0.516627 0.199444 0.652188
0.245398 0.099933 0.541939
0.302712 0.099673 0.529252
0.299974 0.099938 0.608760
0.498686 0.196596 0.757171
0.459127 0.099757 0.067312
0.360632 0.019781 0.074463
0.728617 0.092410 0.563746
0.435854 0.012583 0.384410
0.683928 0.099988 0.673593
0.725710 0.046028 0.638874
0.700326 0.047595 0.282392
0.436246 0.049028 0.468200
0.700052 0.051181 0.234699
0.711124 0.085996 0.643950
0.641651 0.094353 0.602192
0.668246 0.008622 0.548635
0.721023 0.022036 0.679865
0.639810 0.099082 0.651561
0.468952 0.116590 0.641958
0.648064 0.068401 0.654145
0.767844 0.167840 0.602830
0.641778 0.099910 0.702183
0.701353 0.099934 0.762651
0.497181 0.096465 0.671790
0.611378 0.099966 0.796384
0.389773 0.099988 0.713993
0.487476 0.047143 0.648547
0.413089 0.062812 0.690600
0.360671 0.099993 0.098019
0.120784 0.050895 0.419191
0.789653 0.093434 0.274152
0.752921 0.057622 0.157614
0.675938 0.046212 0.514993
0.770477 0.060858 0.620002
0.656005 0.004421 0.485262
0.732921 0.121369 0.398672
0.700348 0.065786 0.565092
0.423891 0.032617 0.299134
0.563036 0.057337 0.631098
0.765643 0.083854 0.552949
0.628766 0.128160 0.637101
0.178418 0.014949 0.459076
0.429149 0.045748 0.649545
0.602083 0.099605 0.729011
0.423350 0.099964 0.644763
0.744336 0.091895 0.739347
0.686376 0.025027 0.715150
0.592664 0.100110 0.700380
0.427286 0.050589 0.739256
0.184660 0.059451 0.597482
0.329796 0.099929 0.664180
0.538913 0.099928 0.689259
0.168296 0.011533 0.394260
0.397676 0.001841 0.297339
0.424260 0.099928 0.303356
0.763532 0.031727 0.528864
0.646246 0.017977 0.383170
0.747221 0.164397 0.379415
0.446425 0.091699 0.550273
0.643124 0.066339 0.406781
0.694417 0.014397 0.596003
0.595658 0.003675 0.673127
0.646004 0.087530 0.525161
0.559370 0.099227 0.603338
0.225732 0.099855 0.398291
0.644639 0.046002 0.597873
0.625711 0.046070 0.552141
0.610133 0.045479 0.650046
0.399121 0.055685 0.760451
0.576785 0.099994 0.769511
0.353151 0.071675 0.616618
0.567571 0.051067 0.783433
0.607927 0.132808 0.758545
0.399898 0.107346 0.691479
0.140955 0.093178 0.505311
0.462881 0.109557 0.781799
0.100143 0.099946 0.282532
0.573958 0.099873 0.563885
0.399890 0.053499 0.226110
0.793683 0.191249 0.299539
0.351670 0.099820 0.430715
0.582479 0.062348 0.399979
0.646086 0.099930 0.295538
0.671306 0.115160 0.499944
0.529374 0.099973 0.430228
0.588594 0.099943 0.505012
0.574508 0.166667 0.560534
0.551709 0.164051 0.658004
0.491571 0.099785 0.582670
0.541008 0.099871 0.645345
0.480330 0.137436 0.691323
0.535942 0.144239 0.698690
0.400622 0.010034 0.736480
0.590012 0.046088 0.696439
0.582378 0.199976 0.666361
0.685703 0.186431 0.677953
0.399439 0.054919 0.722041
0.420958 0.066259 0.789410
0.501547 0.099840 0.796548
0.659297 0.099974 0.788019
0.729139 0.068289 0.401312
0.432469 0.091660 0.153722
0.688044 0.090881 0.299906
0.399617 0.099856 0.253732
0.604033 0.109740 0.599826
0.399864 0.049934 0.267930
0.676924 0.099995 0.400826
0.713326 0.030314 0.527065
0.578852 0.099806 0.417696
0.795459 0.172611 0.379007
0.406291 0.099886 0.363557
0.658653 0.099939 0.341333
0.554729 0.199750 0.624611
0.577928 0.137019 0.626318
0.399661 0.079575 0.297323
0.658108 0.120296 0.559771
0.525223 0.147747 0.746013
0.623985 0.202392 0.663780
0.543602 0.199763 0.693288
0.628191 0.156989 0.557282
0.566236 0.180911 0.732835
0.679205 0.199858 0.606051
0.491094 0.148141 0.793604
0.644723 0.200137 0.540348
0.660828 0.052376 0.297371
0.778360 0.051332 0.398868
0.798153 0.077924 0.363140
0.399521 0.052809 0.399774
0.700790 0.113591 0.602882
0.745470 0.099999 0.291445
0.714306 0.109899 0.441119
0.685385 0.059763 0.329124
0.731771 0.050632 0.558762
0.699976 0.026666 0.604596
0.744068 0.155170 0.524731
0.699735 0.099873 0.261243
0.604135 0.020165 0.744236
0.760079 0.120811 0.585850
0.677824 0.148724 0.648700
0.711664 0.063061 0.599412
0.750191 0.047260 0.715987
0.766135 0.151287 0.649101
0.717506 0.093371 0.700261
0.746347 0.071682 0.673104
0.554823 0.029312 0.741453
0.772694 0.111471 0.690120
0.785199 0.012114 0.689971
0.791816 0.057516 0.669021
0.712859 0.024337 0.339523
0.787052 0.099926 0.469090
0.682900 0.100059 0.588635
0.751949 0.013514 0.409092
0.706872 0.106802 0.517013
0.716910 0.006614 0.451595
0.414320 0.114357 0.155505
0.668446 0.040335 0.438935
0.729814 0.070542 0.340246
0.753937 0.091714 0.373957
0.687170 0.062338 0.613567
0.761908 0.021019 0.648332
0.711112 0.169388 0.575874
0.780824 0.071151 0.507373
0.690570 0.057889 0.680674
0.669864 0.100871 0.631377
0.671875 0.130593 0.723381
0.706324 0.003287 0.622740
0.551798 0.081942 0.714311
0.652594 0.006802 0.760934
0.612632 0.066208 0.759765
0.784363 0.099701 0.710930
0.615647 0.030551 0.791567
0.713518 0.051409 0.748425
0.594227 0.024730 0.376767
0.685904 0.129373 0.391175
0.458006 0.099961 0.023601
0.759789 0.099993 0.428542
0.738500 0.030329 0.487890
0.705124 0.088989 0.301568
0.707952 0.057460 0.072797
0.700065 0.026895 0.382513
0.642398 0.140192 0.599100
0.608109 0.100039 0.672686
0.637380 0.198600 0.591967
0.733612 0.126826 0.674273
0.673798 0.030708 0.647382
0.690290 0.097420 0.539583
0.600340 0.195366 0.621046
0.745142 0.200259 0.574395
0.567595 0.127459 0.730905
0.699788 0.100466 0.700189
0.574803 0.125759 0.673277
0.684816 0.150223 0.602082
0.648762 0.072729 0.699129
0.682281 0.077769 0.726787
0.646432 0.158894 0.682280
0.699530 0.053945 0.477118
0.700033 0.004168 0.251775
0.759943 0.018499 0.353885
0.466949 0.099821 0.108926
0.779131 0.011584 0.486313
0.735067 0.099893 0.177072
0.442991 0.099773 0.244571
0.775365 0.047310 0.451001
0.740132 0.099983 0.481550
0.604813 0.159975 0.656899
0.697260 0.178471 0.401330
0.734881 0.099999 0.128942
0.698882 0.087016 0.426883
0.696861 0.200474 0.561621
0.749414 0.035324 0.592995
0.735836 0.070340 0.516445
0.719419 0.130637 0.559321
0.604877 0.185440 0.701562
0.746158 0.098671 0.604237
0.688356 0.147078 0.531413
0.701651 0.100102 0.600179
0.729936 0.144957 0.617884
0.720308 0.367560 0.560040
0.703476 0.125081 0.650866
0.791283 0.148847 0.559532
0.347711 0.056309 0.041078
0.785400 0.099776 0.099406
0.616308 0.099897 0.394721
0.702468 0.099955 0.358906
0.731571 0.150090 0.297745
0.742639 0.038250 0.200449
0.667249 0.119407 0.448255
0.425059 0.102678 0.102010
0.797583 0.182893 0.457394
0.771139 0.099941 0.329243
0.699997 0.097787 0.216053
0.418403 0.049312 0.135836
0.774944 0.137424 0.277488
0.781530 0.012868 0.567620
0.699967 0.115957 0.300245
0.734173 0.065015 0.449506
0.646413 0.174068 0.633349
0.781549 0.126492 0.391085
0.683919 0.191310 0.515084
0.720839 0.191676 0.627081
0.766923 0.102766 0.643283
0.770550 0.116528 0.520535
0.684061 0.190989 0.455842
0.728792 0.200215 0.526926

CELL_TYPES 360
1
1
1
1
1
1
1
1
1
1
1
1
1
1
1
1
1
1
1
1
1
1
1
1
1
1
1
1
1
1
1
1
1
1
1
1
1
1
1
1
1
1
1
1
1
1
1
1
1
1
1
1
1
1
1
1
1
1
1
1
1
1
1
1
1
1
1
1
1
1
1
1
1
1
1
1
1
1
1
1
1
1
1
1
1
1
1
1
1
1
1
1
1
1
1
1
1
1
1
1
1
1
1
1
1
1
1
1
1
1
1
1
1
1
1
1
1
1
1
1
1
1
1
1
1
1
1
1
1
1
1
1
1
1
1
1
1
1
1
1
1
1
1
1
1
1
1
1
1
1
1
1
1
1
1
1
1
1
1
1
1
1
1
1
1
1
1
1
1
1
1
1
1
1
1
1
1
1
1
1
1
1
1
1
1
1
1
1
1
1
1
1
1
1
1
1
1
1
1
1
1
1
1
1
1
1
1
1
1
1
1
1
1
1
1
1
1
1
1
1
1
1
1
1
1
1
1
1
1
1
1
1
1
1
1
1
1
1
1
1
1
1
1
1
1
1
1
1
1
1
1
1
1
1
1
1
1
1
1
1
1
1
1
1
1
1
1
1
1
1
1
1
1
1
1
1
1
1
1
1
1
1
1
1
1
1
1
1
1
1
1
1
1
1
1
1
1
1
1
1
1
1
1
1
1
1
1
1
1
1
1
1
1
1
1
1
1
1
1
1
1
1
1
1
1
1
1
1
1
1
1
1
1
1
1
1
1
1
1
1
1
1
1
1
1
1
1
1
1
1
1
1
1
1
1
1
1
1
1
1

POINT_DATA 360
SCALARS radius float
LOOKUP_TABLE default
0.5
0.5
0.5
0.5
0.5
0.5
0.5
0.5
0.5
0.5
0.5
0.5
0.5
0.5
0.5
0.5
0.5
0.5
0.5
0.5
0.5
0.5
0.5
0.5
0.5
0.5
0.5
0.5
0.5
0.5
0.5
0.5
0.5
0.5
0.5
0.5
0.5
0.5
0.5
0.5
0.5
0.5
0.5
0.5
0.5
0.5
0.5
0.5
0.5
0.5
0.5
0.5
0.5
0.5
0.5
0.5
0.5
0.5
0.5
0.5
0.5
0.5
0.5
0.5
0.5
0.5
0.5
0.5
0.5
0.5
0.5
0.5
0.5
0.5
0.5
0.5
0.5
0.5
0.5
0.5
0.5
0.5
0.5
0.5
0.5
0.5
0.5
0.5
0.5
0.5
0.5
0.5
0.5
0.5
0.5
0.5
0.5
0.5
0.5
0.5
0.5
0.5
0.5
0.5
0.5
0.5
0.5
0.5
0.5
0.5
0.5
0.5
0.5
0.5
0.5
0.5
0.5
0.5
0.5
0.5
0.5
0.5
0.5
0.5
0.5
0.5
0.5
0.5
0.5
0.5
0.5
0.5
0.5
0.5
0.5
0.5
0.5
0.5
0.5
0.5
0.5
0.5
0.5
0.5
0.5
0.5
0.5
0.5
0.5
0.5
0.5
0.5
0.5
0.5
0.5
0.5
0.5
0.5
0.5
0.5
0.5
0.5
0.5
0.5
0.5
0.5
0.5
0.5
0.5
0.5
0.5
0.5
0.5
0.5
0.5
0.5
0.5
0.5
0.5
0.5
0.5
0.5
0.5
0.5
0.5
0.5
0.5
0.5
0.5
0.5
0.5
0.5
0.5
0.5
0.5
0.5
0.5
0.5
0.5
0.5
0.5
0.5
0.5
0.5
0.5
0.5
0.5
0.5
0.5
0.5
0.5
0.5
0.5
0.5
0.5
0.5
0.5
0.5
0.5
0.5
0.5
0.5
0.5
0.5
0.5
0.5
0.5
0.5
0.5
0.5
0.5
0.5
0.5
0.5
0.5
0.5
0.5
0.5
0.5
0.5
0.5
0.5
0.5
0.5
0.5
0.5
0.5
0.5
0.5
0.5
0.5
0.5
0.5
0.5
0.5
0.5
0.5
0.5
0.5
0.5
0.5
0.5
0.5
0.5
0.5
0.5
0.5
0.5
0.5
0.5
0.5
0.5
0.5
0.5
0.5
0.5
0.5
0.5
0.5
0.5
0.5
0.5
0.5
0.5
0.5
0.5
0.5
0.5
0.5
0.5
0.5
0.5
0.5
0.5
0.5
0.5
0.5
0.5
0.5
0.5
0.5
0.5
0.5
0.5
0.5
0.5
0.5
0.5
0.5
0.5
0.5
0.5
0.5
0.5
0.5
0.5
0.5
0.5
0.5
0.5
0.5
0.5
0.5
0.5
0.5
0.5
0.5
0.5
0.5
0.5
0.5
0.5
0.5
0.5
0.5
0.5
0.5
0.5
0.5
0.5
0.5
0.5
0.5
0.5
0.5
0.5
0.5
0.5
0.5
0.5
0.5
0.5
0.5
0.5
0.5
0.5
0.5
0.5
0.5
0.5
