# vtk DataFile Version 2.0
Title Data
ASCII
DATASET UNSTRUCTURED_GRID
POINTS 512 float
0.023431 0.096731 0.023436
0.070763 0.095306 0.023373
0.024236 0.046630 0.024241
0.072240 0.044326 0.024094
0.023368 0.095308 0.070770
0.070368 0.094393 0.070376
0.024090 0.044339 0.072251
0.071798 0.042950 0.071805
0.024556 0.057333 0.150866
0.073840 0.056434 0.150456
0.024508 0.099131 0.147081
0.073625 0.098433 0.146696
0.024621 0.061263 0.207399
0.073916 0.060482 0.206910
0.024631 0.099063 0.205544
0.073891 0.098512 0.205171
0.024632 0.084604 0.270849
0.073784 0.084185 0.270478
0.024639 0.029538 0.269371
0.073752 0.029041 0.268912
0.024661 0.084378 0.336082
0.073848 0.083955 0.335737
0.024644 0.031185 0.336773
0.073787 0.030697 0.336321
0.024971 0.039545 0.555121
0.074649 0.039537 0.555482
0.024968 0.086782 0.552777
0.074617 0.086767 0.553154
0.024957 0.039223 0.630697
0.074540 0.039207 0.631081
0.024956 0.086786 0.628580
0.074533 0.086775 0.628972
0.024082 0.063572 0.024088
0.073935 0.060268 0.024368
0.023365 0.014832 0.023373
0.070879 0.010979 0.023572
0.024361 0.060278 0.073945
0.074165 0.057781 0.074176
0.023565 0.010993 0.070891
0.070926 0.008224 0.070935
0.024390 0.023497 0.108559
0.072509 0.022301 0.108046
0.024354 0.082680 0.107845
0.072287 0.081704 0.107197
0.024209 0.017491 0.168873
0.071499 0.016185 0.168271
0.023792 0.079177 0.166620
0.070396 0.078213 0.165899
0.024609 0.051038 0.231263
0.073699 0.050524 0.230897
0.024566 0.010166 0.229161
0.073600 0.009581 0.228605
0.024670 0.046307 0.293312
0.073580 0.045730 0.292915
0.024534 0.002076 0.291822
0.072687 0.001292 0.291265
0.024963 0.008245 0.502486
0.074597 0.008238 0.502818
0.024964 0.068298 0.500514
0.074591 0.068290 0.500831
0.024954 0.096506 0.581446
0.074456 0.096492 0.581821
0.024858 0.056487 0.584355
0.073374 0.056371 0.584776
0.019380 0.081102 0.019385
0.065166 0.079703 0.021361
0.022903 0.031552 0.022907
0.068705 0.028889 0.022823
0.021356 0.079700 0.065174
0.065667 0.078010 0.065676
0.022818 0.028902 0.068712
0.068312 0.027112 0.068319
0.024464 0.045231 0.134821
0.073466 0.044268 0.134421
0.024342 0.084217 0.135530
0.072841 0.083581 0.135277
0.024518 0.042465 0.193169
0.073202 0.041801 0.192906
0.023874 0.085334 0.195342
0.070881 0.084603 0.195266
0.024642 0.072325 0.254401
0.073829 0.071883 0.253991
0.024599 0.007983 0.251828
0.073712 0.007418 0.251348
0.024678 0.073227 0.310871
0.073896 0.072801 0.310449
0.024645 0.010499 0.310694
0.073815 0.009992 0.310199
0.024962 0.024338 0.544901
0.074575 0.024329 0.545248
0.024965 0.068292 0.536705
0.074598 0.068281 0.537062
0.024965 0.029192 0.598106
0.074597 0.029188 0.598481
0.024945 0.072585 0.602204
0.074304 0.072623 0.602720
0.026221 0.084751 0.026226
0.076957 0.082018 0.024363
0.024444 0.123395 0.024449
0.074105 0.125545 0.024514
0.024357 0.082042 0.076968
0.075548 0.079818 0.075556
0.024510 0.125552 0.074109
0.073936 0.124421 0.073940
0.024241 0.026556 0.129273
0.072186 0.025452 0.129182
0.024452 0.083586 0.122295
0.072956 0.082353 0.121761
0.024031 0.029108 0.182969
0.070926 0.028244 0.182829
0.024438 0.083815 0.179933
0.073397 0.082834 0.179564
0.024619 0.055859 0.251516
0.073762 0.055300 0.251137
0.024626 0.105562 0.242905
0.073805 0.105063 0.242564
0.024679 0.059614 0.301013
0.073907 0.059032 0.300663
0.024701 0.099334 0.297411
0.074043 0.098984 0.297047
0.024962 0.005583 0.533227
0.074583 0.005575 0.533570
0.024962 0.057591 0.517362
0.074576 0.057584 0.517709
0.024957 0.011868 0.591104
0.074463 0.011868 0.591497
0.024880 0.067545 0.571879
0.073605 0.067597 0.572131
0.150853 0.057338 0.024558
0.207386 0.061257 0.024622
0.147087 0.099131 0.024508
0.205531 0.099063 0.024631
0.150447 0.056433 0.073843
0.206903 0.060481 0.073920
0.146688 0.098433 0.073629
0.205164 0.098512 0.073894
0.152690 0.062945 0.152694
0.204696 0.065820 0.151792
0.148740 0.006203 0.148744
0.204004 0.006537 0.148783
0.151784 0.065820 0.204699
0.200001 0.067439 0.199976
0.148777 0.006537 0.204006
0.198100 0.005150 0.198104
0.151766 0.092987 0.268029
0.199088 0.092241 0.271738
0.151594 0.039672 0.266009
0.200934 0.040792 0.267070
0.148948 0.093831 0.327407
0.197668 0.094755 0.327995
0.147949 0.040077 0.329458
0.197544 0.041186 0.327869
0.153938 0.043590 0.557746
0.203693 0.044449 0.551891
0.151357 0.090029 0.555530
0.201117 0.090781 0.550904
0.142365 0.044153 0.631523
0.192561 0.045304 0.626648
0.142969 0.090543 0.629170
0.192712 0.091565 0.624591
0.108546 0.023478 0.024390
0.168864 0.017473 0.024210
0.107838 0.082677 0.024353
0.166595 0.079216 0.023787
0.108037 0.022298 0.072512
0.168263 0.016184 0.071504
0.107186 0.081704 0.072288
0.165891 0.078213 0.070401
0.114889 0.029215 0.114893
0.170434 0.028789 0.111677
0.114733 0.086173 0.114737
0.173876 0.085272 0.110242
0.111670 0.028791 0.170436
0.169926 0.029372 0.169930
0.110235 0.085273 0.173877
0.171120 0.082669 0.171124
0.120670 0.061117 0.232535
0.175378 0.062022 0.231617
0.121703 0.018975 0.229003
0.177248 0.019257 0.229099
0.116335 0.059846 0.290309
0.172593 0.060164 0.291331
0.113827 0.015970 0.291901
0.173104 0.015277 0.293801
0.136137 0.011576 0.506271
0.186190 0.012348 0.501303
0.135153 0.070121 0.503913
0.185822 0.070848 0.498833
0.120434 0.001778 0.582791
0.175939 0.002776 0.577723
0.115085 0.062405 0.583441
0.174238 0.063269 0.580186
0.134791 0.045203 0.024464
0.193176 0.042441 0.024519
0.135551 0.084213 0.024342
0.195299 0.085325 0.023874
0.134413 0.044266 0.073470
0.192900 0.041799 0.073207
0.135267 0.083582 0.072844
0.195259 0.084603 0.070888
0.135993 0.051811 0.135996
0.193771 0.049763 0.130932
0.136746 0.090708 0.136750
0.186256 0.091084 0.136912
0.130927 0.049764 0.193774
0.196049 0.048164 0.196053
0.136906 0.091084 0.186258
0.193257 0.090712 0.193261
0.135587 0.081244 0.251841
0.192039 0.080756 0.248635
0.134120 0.020500 0.251507
0.187339 0.019510 0.249631
0.136642 0.081494 0.306711
0.193370 0.082515 0.300357
0.137882 0.021943 0.301109
0.193829 0.022589 0.297838
0.132711 0.030533 0.548552
0.188511 0.031424 0.542259
0.131554 0.073162 0.542006
0.185832 0.075597 0.536466
0.143338 0.033158 0.599514
0.194220 0.034246 0.594781
0.145544 0.075673 0.601647
0.199342 0.077152 0.596696
0.129260 0.026519 0.024241
0.182955 0.029103 0.024032
0.122260 0.083577 0.024453
0.179982 0.083802 0.024444
0.129173 0.025450 0.072190
0.182822 0.028242 0.070931
0.121751 0.082348 0.072959
0.179556 0.082830 0.073402
0.133072 0.033525 0.133076
0.182948 0.033503 0.135079
0.127745 0.087398 0.127749
0.180052 0.086811 0.127799
0.135073 0.033504 0.182951
0.183872 0.034454 0.183876
0.127792 0.086813 0.180053
0.179161 0.088555 0.179165
0.135953 0.066912 0.250812
0.188095 0.065802 0.252647
0.133170 0.114116 0.243337
0.183927 0.114125 0.243801
0.136331 0.067948 0.298147
0.188310 0.066958 0.302337
0.133611 0.110819 0.294359
0.184398 0.111200 0.295141
0.132617 0.011590 0.536477
0.186165 0.012859 0.532081
0.135062 0.063437 0.524027
0.187328 0.064638 0.519733
0.140266 0.016113 0.593662
0.195117 0.017230 0.588435
0.135183 0.069737 0.579415
0.188647 0.071070 0.574504
0.270843 0.084601 0.024632
0.336075 0.084376 0.024661
0.269365 0.029531 0.024639
0.336766 0.031178 0.024644
0.270472 0.084184 0.073786
0.335731 0.083954 0.073849
0.268906 0.029040 0.073754
0.336315 0.030696 0.073789
0.268027 0.092987 0.151772
0.327406 0.093831 0.148954
0.266008 0.039672 0.151600
0.329456 0.040077 0.147955
0.271737 0.092241 0.199094
0.327994 0.094755 0.197675
0.267070 0.040792 0.200941
0.327868 0.041187 0.197552
0.261259 0.084755 0.261262
0.315891 0.086493 0.259305
0.259516 0.030608 0.259519
0.319663 0.031822 0.257622
0.259301 0.086493 0.315892
0.305617 0.085355 0.305620
0.257617 0.031823 0.319664
0.301982 0.029818 0.301984
0.266771 0.043904 0.546372
0.320835 0.045272 0.543661
0.264119 0.090405 0.541784
0.318408 0.090028 0.540786
0.260992 0.044654 0.615441
0.308765 0.044631 0.612281
0.259658 0.090794 0.613098
0.307956 0.091129 0.610613
0.231257 0.051033 0.024608
0.293306 0.046301 0.024670
0.229153 0.010158 0.024567
0.291816 0.002069 0.024534
0.230890 0.050523 0.073701
0.292909 0.045729 0.073582
0.228598 0.009580 0.073602
0.291259 0.001290 0.072689
0.232532 0.061117 0.120675
0.290307 0.059846 0.116340
0.229000 0.018975 0.121708
0.291899 0.015970 0.113832
0.231600 0.062024 0.175394
0.291330 0.060164 0.172599
0.229097 0.019258 0.177255
0.293801 0.015277 0.173114
0.224275 0.050764 0.224278
0.282138 0.053768 0.223895
0.223470 0.008017 0.223474
0.286594 0.008182 0.222546
0.223890 0.053768 0.282139
0.282090 0.052195 0.282093
0.222537 0.008182 0.286594
0.286736 0.003878 0.286738
0.244456 0.010637 0.494188
0.293196 0.012134 0.495259
0.243160 0.070806 0.491922
0.292501 0.075261 0.491710
0.231419 0.003653 0.567973
0.286206 0.005058 0.564294
0.227102 0.065502 0.569613
0.285928 0.074053 0.565620
0.254395 0.072319 0.024642
0.310865 0.073222 0.024678
0.251819 0.007976 0.024599
0.310688 0.010492 0.024645
0.253985 0.071882 0.073830
0.310442 0.072801 0.073897
0.251342 0.007416 0.073714
0.310193 0.009990 0.073817
0.251839 0.081244 0.135591
0.306709 0.081494 0.136647
0.251505 0.020500 0.134125
0.301108 0.021942 0.137888
0.248634 0.080756 0.192045
0.300356 0.082515 0.193376
0.249631 0.019511 0.187346
0.297838 0.022589 0.193840
0.240768 0.074009 0.240770
0.300532 0.074009 0.241889
0.242774 0.011126 0.242777
0.292133 0.011230 0.245041
0.241885 0.074009 0.300533
0.297849 0.069392 0.297851
0.245035 0.011231 0.292134
0.295414 0.014794 0.295416
0.245675 0.031557 0.534000
0.299700 0.030331 0.527752
0.243421 0.073044 0.530348
0.295022 0.069969 0.526360
0.248062 0.033279 0.585394
0.297305 0.033010 0.584032
0.254673 0.075704 0.587621
0.308731 0.072300 0.585641
0.251509 0.055852 0.024619
0.301007 0.059606 0.024679
0.242897 0.105554 0.024626
0.297406 0.099327 0.024701
0.251130 0.055298 0.073763
0.300657 0.059030 0.073908
0.242558 0.105061 0.073806
0.297042 0.098981 0.074044
0.250810 0.066912 0.135958
0.298145 0.067947 0.136336
0.243335 0.114116 0.133174
0.294358 0.110819 0.133615
0.252645 0.065802 0.188101
0.302336 0.066958 0.188316
0.243799 0.114125 0.183933
0.295140 0.111200 0.184403
0.242488 0.057847 0.242491
0.290455 0.056728 0.243960
0.237655 0.107574 0.237657
0.289166 0.103696 0.238453
0.243956 0.056728 0.290456
0.294149 0.056963 0.294151
0.238450 0.103696 0.289169
0.288375 0.105340 0.288377
0.243436 0.012290 0.523970
0.293273 0.011872 0.524177
0.243989 0.064996 0.512909
0.293907 0.062429 0.510092
0.253388 0.015143 0.581028
0.305830 0.013251 0.577974
0.246670 0.067613 0.568537
0.297175 0.064535 0.567311
0.555121 0.039545 0.024972
0.630697 0.039223 0.024957
0.552777 0.086782 0.024968
0.628580 0.086786 0.024956
0.555477 0.039537 0.074650
0.631076 0.039207 0.074542
0.553150 0.086767 0.074619
0.628967 0.086775 0.074535
0.557736 0.043591 0.153946
0.631514 0.044153 0.142372
0.555519 0.090029 0.151365
0.629161 0.090544 0.142976
0.551880 0.044451 0.203704
0.626632 0.045305 0.192572
0.550893 0.090782 0.201128
0.624574 0.091566 0.192724
0.546374 0.043905 0.266780
0.615443 0.044656 0.261004
0.541786 0.090406 0.264129
0.613101 0.090795 0.259670
0.543663 0.045273 0.320844
0.612284 0.044633 0.308774
0.540788 0.090029 0.318417
0.610615 0.091130 0.307965
0.437265 0.018709 0.437265
0.503519 0.020648 0.439067
0.432357 0.068391 0.432357
0.503519 0.067561 0.434185
0.439067 0.020648 0.503519
0.500536 0.020496 0.500536
0.434185 0.067561 0.503519
0.495601 0.066351 0.495601
0.502486 0.008245 0.024963
0.581446 0.096506 0.024955
0.500514 0.068298 0.024964
0.584355 0.056487 0.024858
0.502814 0.008238 0.074598
0.581817 0.096492 0.074458
0.500827 0.068290 0.074592
0.584772 0.056371 0.073376
0.506261 0.011576 0.136144
0.582782 0.001779 0.120440
0.503903 0.070122 0.135159
0.583431 0.062406 0.115092
0.501293 0.012349 0.186200
0.577710 0.002777 0.175948
0.498822 0.070850 0.185831
0.580171 0.063271 0.174248
0.494190 0.010639 0.244466
0.567976 0.003655 0.231431
0.491925 0.070807 0.243170
0.569616 0.065503 0.227117
0.495261 0.012136 0.293204
0.564297 0.005059 0.286215
0.491712 0.075262 0.292509
0.565622 0.074054 0.285938
0.396137 0.086349 0.396137
0.459521 0.083709 0.393293
0.396096 0.043679 0.396096
0.461768 0.040936 0.385127
0.393292 0.083709 0.459521
0.455559 0.082375 0.455559
0.385127 0.040936 0.461768
0.454967 0.035731 0.454967
0.544901 0.024338 0.024962
0.598105 0.029192 0.024966
0.536705 0.068292 0.024965
0.602204 0.072585 0.024945
0.545244 0.024329 0.074576
0.598477 0.029188 0.074599
0.537058 0.068281 0.074599
0.602715 0.072623 0.074306
0.548542 0.030534 0.132718
0.599504 0.033159 0.143346
0.541996 0.073162 0.131560
0.601637 0.075674 0.145552
0.542248 0.031425 0.188521
0.594766 0.034247 0.194231
0.536454 0.075599 0.185841
0.596677 0.077154 0.199354
0.534003 0.031559 0.245685
0.585397 0.033280 0.248073
0.530350 0.073045 0.243431
0.587624 0.075705 0.254686
0.527754 0.030332 0.299708
0.584035 0.033012 0.297314
0.526363 0.069970 0.295030
0.585643 0.072302 0.308740
0.414733 0.006909 0.414733
0.485011 0.006054 0.410055
0.420109 0.050406 0.420109
0.476980 0.053255 0.422868
0.410055 0.006054 0.485011
0.480735 0.004766 0.480735
0.422868 0.053255 0.476980
0.478501 0.051843 0.478501
0.533227 0.005583 0.024962
0.591103 0.011868 0.024957
0.517362 0.057591 0.024962
0.571879 0.067545 0.024881
0.533566 0.005575 0.074584
0.591492 0.011867 0.074465
0.517705 0.057583 0.074577
0.572126 0.067597 0.073607
0.536468 0.011590 0.132624
0.593652 0.016114 0.140273
0.524018 0.063438 0.135069
0.579405 0.069738 0.135191
0.532071 0.012860 0.186175
0.588421 0.017231 0.195127
0.519722 0.064639 0.187337
0.574487 0.071071 0.188659
0.523972 0.012292 0.243445
0.581031 0.015145 0.253399
0.512912 0.064998 0.243998
0.568540 0.067615 0.246683
0.524179 0.011873 0.293282
0.577977 0.013252 0.305839
0.510094 0.062430 0.293915
0.567313 0.064537 0.297185
0.415141 0.088685 0.415141
0.470968 0.092336 0.421854
0.403321 0.040763 0.403321
0.468606 0.042637 0.410930
0.421854 0.092336 0.470968
0.470739 0.092023 0.470739
0.410930 0.042637 0.468606
0.467021 0.043661 0.467021

CELL_TYPES 512
1
1
1
1
1
1
1
1
1
1
1
1
1
1
1
1
1
1
1
1
1
1
1
1
1
1
1
1
1
1
1
1
1
1
1
1
1
1
1
1
1
1
1
1
1
1
1
1
1
1
1
1
1
1
1
1
1
1
1
1
1
1
1
1
1
1
1
1
1
1
1
1
1
1
1
1
1
1
1
1
1
1
1
1
1
1
1
1
1
1
1
1
1
1
1
1
1
1
1
1
1
1
1
1
1
1
1
1
1
1
1
1
1
1
1
1
1
1
1
1
1
1
1
1
1
1
1
1
1
1
1
1
1
1
1
1
1
1
1
1
1
1
1
1
1
1
1
1
1
1
1
1
1
1
1
1
1
1
1
1
1
1
1
1
1
1
1
1
1
1
1
1
1
1
1
1
1
1
1
1
1
1
1
1
1
1
1
1
1
1
1
1
1
1
1
1
1
1
1
1
1
1
1
1
1
1
1
1
1
1
1
1
1
1
1
1
1
1
1
1
1
1
1
1
1
1
1
1
1
1
1
1
1
1
1
1
1
1
1
1
1
1
1
1
1
1
1
1
1
1
1
1
1
1
1
1
1
1
1
1
1
1
1
1
1
1
1
1
1
1
1
1
1
1
1
1
1
1
1
1
1
1
1
1
1
1
1
1
1
1
1
1
1
1
1
1
1
1
1
1
1
1
1
1
1
1
1
1
1
1
1
1
1
1
1
1
1
1
1
1
1
1
1
1
1
1
1
1
1
1
1
1
1
1
1
1
1
1
1
1
1
1
1
1
1
1
1
1
1
1
1
1
1
1
1
1
1
1
1
1
1
1
1
1
1
1
1
1
1
1
1
1
1
1
1
1
1
1
1
1
1
1
1
1
1
1
1
1
1
1
1
1
1
1
1
1
1
1
1
1
1
1
1
1
1
1
1
1
1
1
1
1
1
1
1
1
1
1
1
1
1
1
1
1
1
1
1
1
1
1
1
1
1
1
1
1
1
1
1
1
1
1
1
1
1
1
1
1
1
1
1
1
1
1
1
1
1
1
1
1
1
1
1
1
1
1
1
1
1
1
1
1
1
1
1
1
1
1
1
1
1
1
1
1
1
1
1
1
1
1
1
1
1
1
1
1
1
1
1
1
1
1
1
1
1
1
1
1
1
1
1
1

POINT_DATA 512
SCALARS radius float
LOOKUP_TABLE default
0.5
0.5
0.5
0.5
0.5
0.5
0.5
0.5
0.5
0.5
0.5
0.5
0.5
0.5
0.5
0.5
0.5
0.5
0.5
0.5
0.5
0.5
0.5
0.5
0.5
0.5
0.5
0.5
0.5
0.5
0.5
0.5
0.5
0.5
0.5
0.5
0.5
0.5
0.5
0.5
0.5
0.5
0.5
0.5
0.5
0.5
0.5
0.5
0.5
0.5
0.5
0.5
0.5
0.5
0.5
0.5
0.5
0.5
0.5
0.5
0.5
0.5
0.5
0.5
0.5
0.5
0.5
0.5
0.5
0.5
0.5
0.5
0.5
0.5
0.5
0.5
0.5
0.5
0.5
0.5
0.5
0.5
0.5
0.5
0.5
0.5
0.5
0.5
0.5
0.5
0.5
0.5
0.5
0.5
0.5
0.5
0.5
0.5
0.5
0.5
0.5
0.5
0.5
0.5
0.5
0.5
0.5
0.5
0.5
0.5
0.5
0.5
0.5
0.5
0.5
0.5
0.5
0.5
0.5
0.5
0.5
0.5
0.5
0.5
0.5
0.5
0.5
0.5
0.5
0.5
0.5
0.5
0.5
0.5
0.5
0.5
0.5
0.5
0.5
0.5
0.5
0.5
0.5
0.5
0.5
0.5
0.5
0.5
0.5
0.5
0.5
0.5
0.5
0.5
0.5
0.5
0.5
0.5
0.5
0.5
0.5
0.5
0.5
0.5
0.5
0.5
0.5
0.5
0.5
0.5
0.5
0.5
0.5
0.5
0.5
0.5
0.5
0.5
0.5
0.5
0.5
0.5
0.5
0.5
0.5
0.5
0.5
0.5
0.5
0.5
0.5
0.5
0.5
0.5
0.5
0.5
0.5
0.5
0.5
0.5
0.5
0.5
0.5
0.5
0.5
0.5
0.5
0.5
0.5
0.5
0.5
0.5
0.5
0.5
0.5
0.5
0.5
0.5
0.5
0.5
0.5
0.5
0.5
0.5
0.5
0.5
0.5
0.5
0.5
0.5
0.5
0.5
0.5
0.5
0.5
0.5
0.5
0.5
0.5
0.5
0.5
0.5
0.5
0.5
0.5
0.5
0.5
0.5
0.5
0.5
0.5
0.5
0.5
0.5
0.5
0.5
0.5
0.5
0.5
0.5
0.5
0.5
0.5
0.5
0.5
0.5
0.5
0.5
0.5
0.5
0.5
0.5
0.5
0.5
0.5
0.5
0.5
0.5
0.5
0.5
0.5
0.5
0.5
0.5
0.5
0.5
0.5
0.5
0.5
0.5
0.5
0.5
0.5
0.5
0.5
0.5
0.5
0.5
0.5
0.5
0.5
0.5
0.5
0.5
0.5
0.5
0.5
0.5
0.5
0.5
0.5
0.5
0.5
0.5
0.5
0.5
0.5
0.5
0.5
0.5
0.5
0.5
0.5
0.5
0.5
0.5
0.5
0.5
0.5
0.5
0.5
0.5
0.5
0.5
0.5
0.5
0.5
0.5
0.5
0.5
0.5
0.5
0.5
0.5
0.5
0.5
0.5
0.5
0.5
0.5
0.5
0.5
0.5
0.5
0.5
0.5
0.5
0.5
0.5
0.5
0.5
0.5
0.5
0.5
0.5
0.5
0.5
0.5
0.5
0.5
0.5
0.5
0.5
0.5
0.5
0.5
0.5
0.5
0.5
0.5
0.5
0.5
0.5
0.5
0.5
0.5
0.5
0.5
0.5
0.5
0.5
0.5
0.5
0.5
0.5
0.5
0.5
0.5
0.5
0.5
0.5
0.5
0.5
0.5
0.5
0.5
0.5
0.5
0.5
0.5
0.5
0.5
0.5
0.5
0.5
0.5
0.5
0.5
0.5
0.5
0.5
0.5
0.5
0.5
0.5
0.5
0.5
0.5
0.5
0.5
0.5
0.5
0.5
0.5
0.5
0.5
0.5
0.5
0.5
0.5
0.5
0.5
0.5
0.5
0.5
0.5
0.5
0.5
0.5
0.5
0.5
0.5
0.5
0.5
0.5
0.5
0.5
0.5
0.5
0.5
0.5
0.5
0.5
0.5
0.5
0.5
0.5
0.5
0.5
0.5
0.5
0.5
0.5
0.5
0.5
0.5
0.5
0.5
0.5
0.5
0.5
0.5
0.5
0.5
0.5
0.5
0.5
0.5
0.5
0.5
0.5
0.5
0.5
0.5
0.5
0.5
0.5
0.5
0.5
0.5
0.5
0.5
0.5
0.5
0.5
0.5
0.5
0.5
0.5
0.5
0.5
0.5
