# vtk DataFile Version 2.0
Title Data
ASCII
DATASET UNSTRUCTURED_GRID
POINTS 384 float
0.112511 0.108776 0.098548
0.070158 0.093252 0.051909
0.099913 0.128673 0.115911
0.138354 0.173459 0.117721
0.023825 0.092981 0.092818
0.000608 0.099921 0.017414
0.100001 0.223820 0.077345
0.065414 0.144296 0.141235
0.139868 0.056452 0.112256
0.052339 0.079394 0.008365
0.008734 0.079425 0.136803
0.099953 0.106067 0.156345
0.004477 0.099990 0.200772
0.097654 0.099951 0.200022
0.050362 0.067457 0.208302
0.102508 0.183897 0.151407
0.025103 0.052025 0.247510
0.066323 0.076747 0.258379
0.141865 0.118321 0.241802
0.128296 0.162846 0.233945
0.094048 0.091286 0.298316
0.100066 0.113586 0.301410
0.037979 0.082699 0.297962
0.001878 0.087527 0.339793
0.101761 0.097325 0.354128
0.131773 0.150920 0.336160
0.086537 0.099945 0.399861
0.041118 0.096015 0.386370
0.100684 0.099916 0.436290
0.100350 0.189551 0.399976
0.097244 0.175138 0.475273
0.045758 0.190909 0.471346
0.062934 0.058025 0.096153
0.111937 0.113868 0.049263
0.053966 0.185345 0.117362
0.101126 0.184802 0.049716
0.075112 0.145996 0.019685
0.034628 0.161448 0.078525
0.095274 0.099724 0.092537
0.090272 0.151746 0.080782
0.138871 0.134204 0.144048
0.099259 0.180115 0.200026
0.099539 0.198978 0.100016
0.020078 0.124737 0.140010
0.045369 0.100000 0.173045
0.114503 0.091416 0.147704
0.102754 0.133034 0.202524
0.060712 0.097689 0.127279
0.101755 0.097975 0.236629
0.098232 0.205683 0.198180
0.054008 0.188677 0.218406
0.010693 0.167691 0.205691
0.086654 0.145105 0.248436
0.060661 0.120500 0.279820
0.020287 0.099941 0.255044
0.061495 0.110973 0.223538
0.077811 0.115828 0.359615
0.003232 0.146353 0.285576
0.124841 0.149597 0.281528
0.083662 0.153599 0.324264
0.067687 0.166629 0.434384
0.017173 0.196860 0.433494
0.047545 0.144337 0.397995
0.097135 0.175607 0.385741
0.015365 0.287316 0.015392
0.063804 0.196948 0.002072
0.004823 0.368826 0.004816
0.038106 0.288226 0.079498
0.003058 0.197751 0.066210
0.034124 0.122436 0.044262
0.080297 0.296690 0.025031
0.053569 0.198149 0.050855
0.006572 0.295981 0.123028
0.061429 0.228777 0.108233
0.008512 0.375083 0.094277
0.070055 0.347626 0.099876
0.010961 0.184174 0.158310
0.051988 0.148590 0.185982
0.103979 0.382171 0.164152
0.047272 0.239903 0.154509
0.005157 0.311471 0.209918
0.074074 0.277525 0.199705
0.010221 0.379394 0.190234
0.053826 0.326040 0.195815
0.004232 0.191245 0.249075
0.034817 0.145154 0.246670
0.109019 0.373796 0.253487
0.039707 0.247484 0.241624
0.014223 0.206893 0.294346
0.052556 0.187510 0.267639
0.011376 0.352089 0.282854
0.056937 0.298434 0.292039
0.037434 0.113598 0.321701
0.011241 0.126601 0.365737
0.007279 0.271009 0.304819
0.058018 0.197067 0.315727
0.054762 0.123664 0.099786
0.194193 0.098988 0.026434
0.151494 0.094565 0.080959
0.181922 0.188314 0.139901
0.016647 0.069827 0.052556
0.194982 0.065148 0.100271
0.115176 0.067545 0.055017
0.166830 0.188352 0.080226
0.100634 0.083402 0.100071
0.171513 0.063735 0.051755
0.154945 0.065754 0.166313
0.200018 0.077216 0.151064
0.076285 0.061981 0.160469
0.187833 0.084344 0.199813
0.141111 0.092649 0.204274
0.193473 0.199774 0.199950
0.102478 0.062015 0.200019
0.181301 0.123329 0.212161
0.139052 0.063702 0.247459
0.179470 0.091398 0.248032
0.104562 0.069618 0.311199
0.185633 0.093656 0.300617
0.144184 0.091047 0.330872
0.200244 0.121401 0.302719
0.060245 0.076291 0.340728
0.200985 0.072819 0.353072
0.124038 0.083250 0.398960
0.205236 0.099782 0.404126
0.096038 0.212050 0.478273
0.161853 0.094477 0.427233
0.142460 0.298861 0.501691
0.189375 0.155377 0.487980
0.144242 0.090418 0.018781
0.201645 0.144790 0.070990
0.113044 0.202539 0.008084
0.169173 0.206414 0.100122
0.159136 0.131319 0.035995
0.180012 0.150350 0.108155
0.129616 0.158419 0.003431
0.142977 0.141925 0.079742
0.120684 0.215415 0.118367
0.160906 0.097227 0.128792
0.110995 0.286391 0.123600
0.163574 0.250377 0.118814
0.142317 0.108093 0.185427
0.186090 0.121049 0.163733
0.116136 0.234695 0.163385
0.158889 0.165033 0.175797
0.145263 0.199935 0.207407
0.175931 0.167583 0.232527
0.117162 0.284892 0.208728
0.175156 0.258798 0.206784
0.139781 0.098298 0.283544
0.214770 0.164653 0.287654
0.099090 0.198473 0.253408
0.172982 0.135813 0.272711
0.166825 0.168652 0.307666
0.167404 0.093443 0.379857
0.132921 0.199465 0.289255
0.200984 0.199911 0.305223
0.095429 0.202942 0.425683
0.137575 0.099769 0.468125
0.137516 0.155268 0.413006
0.184483 0.163828 0.398862
0.118068 0.335216 0.105785
0.161209 0.232582 0.020263
0.102200 0.392734 0.004024
0.150764 0.365220 0.000212
0.106386 0.279622 0.063651
0.148984 0.188497 0.037800
0.100804 0.365058 0.062019
0.152494 0.286998 0.046769
0.116480 0.393423 0.116782
0.171580 0.306637 0.110417
0.113011 0.446939 0.096469
0.153458 0.360433 0.081482
0.109306 0.304268 0.169137
0.158059 0.276581 0.162122
0.058854 0.298656 0.146520
0.148657 0.350726 0.143530
0.099786 0.373129 0.204369
0.151389 0.333957 0.190510
0.102143 0.466105 0.197142
0.150261 0.394422 0.197687
0.103272 0.293459 0.255719
0.152447 0.248153 0.251268
0.056910 0.298029 0.241960
0.162554 0.341046 0.238560
0.104287 0.267659 0.300929
0.184282 0.292280 0.291503
0.097298 0.386903 0.300005
0.173188 0.387477 0.276295
0.132233 0.124549 0.376868
0.173365 0.123832 0.343435
0.100118 0.314376 0.311366
0.140109 0.311145 0.280462
0.240222 0.081037 0.023218
0.271371 0.099985 0.098988
0.258552 0.139566 0.144211
0.318032 0.091735 0.039089
0.200265 0.107500 0.024500
0.315969 0.105099 0.113812
0.200017 0.106586 0.106673
0.346470 0.099627 0.001302
0.209924 0.055745 0.082427
0.257563 0.063014 0.072995
0.247228 0.064092 0.121761
0.318030 0.079928 0.155653
0.233627 0.089883 0.193421
0.271979 0.062746 0.179612
0.228581 0.136788 0.184888
0.304144 0.158442 0.222955
0.218181 0.061449 0.242720
0.300205 0.090009 0.199973
0.267715 0.063286 0.228996
0.300071 0.096691 0.246599
0.212516 0.099983 0.279897
0.293320 0.099978 0.293941
0.251461 0.122051 0.299915
0.322423 0.179921 0.325227
0.233234 0.091578 0.322738
0.278355 0.070318 0.312638
0.245636 0.083498 0.377167
0.294851 0.080345 0.377730
0.212610 0.099330 0.456616
0.263618 0.099611 0.471168
0.229155 0.099260 0.504676
0.293047 0.139391 0.498340
0.241140 0.130320 0.098774
0.288869 0.145425 0.100074
0.221343 0.163705 0.123480
0.275977 0.099989 0.047813
0.212935 0.199790 0.089563
0.222451 0.099260 0.067454
0.198368 0.189742 0.033027
0.257170 0.186545 0.076374
0.224901 0.185054 0.165380
0.276651 0.098121 0.146741
0.213667 0.256064 0.114562
0.258162 0.193472 0.124941
0.228284 0.100226 0.146173
0.272611 0.108133 0.199998
0.199990 0.222271 0.165361
0.268038 0.167758 0.182258
0.227824 0.101756 0.220449
0.256693 0.146440 0.225545
0.225106 0.185196 0.218510
0.261829 0.204907 0.200046
0.214185 0.140143 0.247030
0.287924 0.146355 0.268372
0.194686 0.199873 0.261407
0.256146 0.098358 0.260779
0.214873 0.117223 0.365893
0.273494 0.106612 0.343692
0.239203 0.148276 0.336452
0.276252 0.177435 0.306277
0.185015 0.130934 0.440189
0.299179 0.087987 0.440471
0.250027 0.098913 0.424115
0.288567 0.106939 0.399919
0.203936 0.319952 0.011310
0.241504 0.181747 0.009485
0.196868 0.389176 0.012068
0.252014 0.370902 0.111160
0.195278 0.288660 0.071623
0.246638 0.135399 0.049943
0.197345 0.359094 0.057731
0.240082 0.230206 0.037781
0.202198 0.386517 0.100034
0.250398 0.294250 0.106973
0.198917 0.465059 0.103038
0.242205 0.293700 0.057434
0.194273 0.331610 0.150874
0.248081 0.224582 0.155497
0.197884 0.395131 0.151868
0.241576 0.344296 0.159849
0.202800 0.361396 0.199703
0.251116 0.273741 0.201092
0.281506 0.364767 0.294480
0.267518 0.299628 0.238235
0.205956 0.270570 0.245488
0.251504 0.186446 0.262984
0.221998 0.313482 0.252632
0.199997 0.395938 0.202410
0.210979 0.181797 0.347766
0.256174 0.138441 0.381807
0.216172 0.281041 0.339429
0.150606 0.273029 0.328019
0.214024 0.161064 0.400155
0.290039 0.191230 0.399955
0.203670 0.365258 0.300083
0.180586 0.199780 0.368096
0.352009 0.072758 0.123809
0.446264 0.076859 0.082307
0.418368 0.157386 0.114269
0.475469 0.108030 0.081104
0.309777 0.087158 0.099942
0.425622 0.099977 0.102055
0.395930 0.080836 0.062396
0.476277 0.099364 0.032544
0.357414 0.065713 0.040202
0.504228 0.274274 0.084465
0.381612 0.099965 0.102376
0.498059 0.147342 0.122646
0.346654 0.076138 0.193903
0.438612 0.082866 0.174631
0.434758 0.099781 0.221198
0.510270 0.294250 0.200029
0.346774 0.078784 0.243080
0.481795 0.099922 0.206567
0.402173 0.086339 0.256366
0.506207 0.298065 0.249718
0.319946 0.086822 0.289951
0.413813 0.099848 0.299938
0.399091 0.065002 0.314055
0.492072 0.151282 0.295377
0.314209 0.099963 0.337331
0.468132 0.074918 0.322054
0.390506 0.071189 0.374092
0.486414 0.099901 0.361618
0.334031 0.098404 0.475614
0.402443 0.249240 0.410900
0.379457 0.099696 0.455315
0.450497 0.292790 0.405014
0.346336 0.099939 0.075113
0.430022 0.099917 0.040810
0.297884 0.199893 0.099885
0.372997 0.117613 0.038121
0.324772 0.136256 0.025601
0.400554 0.169526 0.002190
0.305585 0.127252 0.070949
0.400209 0.165641 0.068597
0.308933 0.140480 0.147861
0.463394 0.099031 0.133213
0.302529 0.196030 0.146806
0.411488 0.099842 0.140089
0.383286 0.096169 0.170643
0.485451 0.116983 0.171607
0.306023 0.199719 0.195502
0.392975 0.174271 0.170627
0.343355 0.169786 0.174853
0.436066 0.127351 0.185181
0.335153 0.123477 0.237497
0.387299 0.092556 0.213640
0.365625 0.089282 0.288289
0.463727 0.099534 0.261451
0.337981 0.146653 0.281374
0.383071 0.160903 0.302819
0.301594 0.143432 0.361889
0.449177 0.110146 0.310125
0.342991 0.083782 0.374871
0.440134 0.095441 0.377767
0.308578 0.109260 0.439510
0.412546 0.296735 0.454049
0.351277 0.085722 0.421354
0.400658 0.299650 0.404696
0.297573 0.199685 0.003658
0.334549 0.192435 0.108649
0.283401 0.336066 0.009950
0.302859 0.275963 0.006362
0.280499 0.168183 0.037737
0.363822 0.152710 0.099733
0.291660 0.295132 0.057594
0.316366 0.197673 0.055306
0.299879 0.291851 0.111392
0.353563 0.117662 0.142241
0.299200 0.387796 0.098463
0.321443 0.297439 0.097584
0.292572 0.258023 0.167213
0.318722 0.115558 0.189435
0.283048 0.384662 0.175404
0.285260 0.323744 0.142940
0.368282 0.135194 0.203991
0.409672 0.155312 0.221941
0.313385 0.248662 0.247936
0.298975 0.299077 0.200265
0.380014 0.112971 0.253691
0.424135 0.125096 0.268507
0.314485 0.299104 0.185411
0.380841 0.263190 0.196181
0.362281 0.094920 0.333154
0.406575 0.099851 0.345664
0.201672 0.310570 0.392377
0.352955 0.133931 0.354517
0.333107 0.124251 0.398206
0.381563 0.114974 0.391841
0.277141 0.275266 0.392298
0.389249 0.185206 0.391447

CELL_TYPES 384
1
1
1
1
1
1
1
1
1
1
1
1
1
1
1
1
1
1
1
1
1
1
1
1
1
1
1
1
1
1
1
1
1
1
1
1
1
1
1
1
1
1
1
1
1
1
1
1
1
1
1
1
1
1
1
1
1
1
1
1
1
1
1
1
1
1
1
1
1
1
1
1
1
1
1
1
1
1
1
1
1
1
1
1
1
1
1
1
1
1
1
1
1
1
1
1
1
1
1
1
1
1
1
1
1
1
1
1
1
1
1
1
1
1
1
1
1
1
1
1
1
1
1
1
1
1
1
1
1
1
1
1
1
1
1
1
1
1
1
1
1
1
1
1
1
1
1
1
1
1
1
1
1
1
1
1
1
1
1
1
1
1
1
1
1
1
1
1
1
1
1
1
1
1
1
1
1
1
1
1
1
1
1
1
1
1
1
1
1
1
1
1
1
1
1
1
1
1
1
1
1
1
1
1
1
1
1
1
1
1
1
1
1
1
1
1
1
1
1
1
1
1
1
1
1
1
1
1
1
1
1
1
1
1
1
1
1
1
1
1
1
1
1
1
1
1
1
1
1
1
1
1
1
1
1
1
1
1
1
1
1
1
1
1
1
1
1
1
1
1
1
1
1
1
1
1
1
1
1
1
1
1
1
1
1
1
1
1
1
1
1
1
1
1
1
1
1
1
1
1
1
1
1
1
1
1
1
1
1
1
1
1
1
1
1
1
1
1
1
1
1
1
1
1
1
1
1
1
1
1
1
1
1
1
1
1
1
1
1
1
1
1
1
1
1
1
1
1
1
1
1
1
1
1
1
1
1
1
1
1
1
1
1
1
1
1
1
1
1
1
1
1
1
1
1
1
1
1
1
1
1
1
1
1

POINT_DATA 384
SCALARS radius float
LOOKUP_TABLE default
0.5
0.5
0.5
0.5
0.5
0.5
0.5
0.5
0.5
0.5
0.5
0.5
0.5
0.5
0.5
0.5
0.5
0.5
0.5
0.5
0.5
0.5
0.5
0.5
0.5
0.5
0.5
0.5
0.5
0.5
0.5
0.5
0.5
0.5
0.5
0.5
0.5
0.5
0.5
0.5
0.5
0.5
0.5
0.5
0.5
0.5
0.5
0.5
0.5
0.5
0.5
0.5
0.5
0.5
0.5
0.5
0.5
0.5
0.5
0.5
0.5
0.5
0.5
0.5
0.5
0.5
0.5
0.5
0.5
0.5
0.5
0.5
0.5
0.5
0.5
0.5
0.5
0.5
0.5
0.5
0.5
0.5
0.5
0.5
0.5
0.5
0.5
0.5
0.5
0.5
0.5
0.5
0.5
0.5
0.5
0.5
0.5
0.5
0.5
0.5
0.5
0.5
0.5
0.5
0.5
0.5
0.5
0.5
0.5
0.5
0.5
0.5
0.5
0.5
0.5
0.5
0.5
0.5
0.5
0.5
0.5
0.5
0.5
0.5
0.5
0.5
0.5
0.5
0.5
0.5
0.5
0.5
0.5
0.5
0.5
0.5
0.5
0.5
0.5
0.5
0.5
0.5
0.5
0.5
0.5
0.5
0.5
0.5
0.5
0.5
0.5
0.5
0.5
0.5
0.5
0.5
0.5
0.5
0.5
0.5
0.5
0.5
0.5
0.5
0.5
0.5
0.5
0.5
0.5
0.5
0.5
0.5
0.5
0.5
0.5
0.5
0.5
0.5
0.5
0.5
0.5
0.5
0.5
0.5
0.5
0.5
0.5
0.5
0.5
0.5
0.5
0.5
0.5
0.5
0.5
0.5
0.5
0.5
0.5
0.5
0.5
0.5
0.5
0.5
0.5
0.5
0.5
0.5
0.5
0.5
0.5
0.5
0.5
0.5
0.5
0.5
0.5
0.5
0.5
0.5
0.5
0.5
0.5
0.5
0.5
0.5
0.5
0.5
0.5
0.5
0.5
0.5
0.5
0.5
0.5
0.5
0.5
0.5
0.5
0.5
0.5
0.5
0.5
0.5
0.5
0.5
0.5
0.5
0.5
0.5
0.5
0.5
0.5
0.5
0.5
0.5
0.5
0.5
0.5
0.5
0.5
0.5
0.5
0.5
0.5
0.5
0.5
0.5
0.5
0.5
0.5
0.5
0.5
0.5
0.5
0.5
0.5
0.5
0.5
0.5
0.5
0.5
0.5
0.5
0.5
0.5
0.5
0.5
0.5
0.5
0.5
0.5
0.5
0.5
0.5
0.5
0.5
0.5
0.5
0.5
0.5
0.5
0.5
0.5
0.5
0.5
0.5
0.5
0.5
0.5
0.5
0.5
0.5
0.5
0.5
0.5
0.5
0.5
0.5
0.5
0.5
0.5
0.5
0.5
0.5
0.5
0.5
0.5
0.5
0.5
0.5
0.5
0.5
0.5
0.5
0.5
0.5
0.5
0.5
0.5
0.5
0.5
0.5
0.5
0.5
0.5
0.5
0.5
0.5
0.5
0.5
0.5
0.5
0.5
0.5
0.5
0.5
0.5
0.5
0.5
0.5
0.5
0.5
0.5
0.5
0.5
0.5
0.5
0.5
0.5
0.5
0.5
0.5
0.5
0.5
0.5
0.5
0.5
0.5
0.5
0.5
0.5
0.5
0.5
