# vtk DataFile Version 2.0
Title Data
ASCII
DATASET UNSTRUCTURED_GRID
POINTS 384 float
0.104619 0.211104 0.013469
0.081352 0.205460 0.066202
0.124549 0.199227 0.101743
0.116986 0.291981 0.100143
0.041412 0.245898 0.086041
0.016449 0.225349 0.025260
0.099625 0.326053 0.099604
0.089870 0.278839 0.137257
0.140384 0.169092 0.125074
0.061209 0.188221 0.028611
0.036404 0.195288 0.128824
0.001104 0.196112 0.163010
0.037628 0.197297 0.189522
0.100092 0.195971 0.199694
0.059945 0.176487 0.206881
0.108694 0.277344 0.177154
0.044931 0.137408 0.246777
0.090373 0.169313 0.250386
0.143229 0.217997 0.235720
0.124861 0.266836 0.217919
0.002285 0.177790 0.276765
0.102092 0.233071 0.303359
0.053724 0.170163 0.297153
0.019687 0.252076 0.333196
0.113764 0.256229 0.345537
0.126288 0.299942 0.310458
0.093148 0.251298 0.390740
0.044447 0.256311 0.376249
0.118891 0.255127 0.427150
0.003238 0.259246 0.403700
0.097653 0.249816 0.471586
0.050468 0.297380 0.466117
0.087690 0.178705 0.105912
0.102929 0.243909 0.065113
0.094988 0.298944 0.100293
0.006054 0.294015 0.078478
0.090275 0.296666 0.047900
0.056751 0.293678 0.101621
0.096843 0.239799 0.102267
0.032405 0.279156 0.000569
0.133791 0.259284 0.143524
0.008190 0.268604 0.173333
0.100080 0.287216 0.092810
0.032481 0.261515 0.132284
0.061169 0.211399 0.166749
0.111896 0.192447 0.155264
0.100035 0.222782 0.196953
0.084957 0.199397 0.132427
0.005683 0.190372 0.219129
0.099866 0.311702 0.197682
0.082348 0.289016 0.200142
0.039695 0.258008 0.208984
0.108970 0.199656 0.257397
0.078015 0.201727 0.285374
0.044637 0.193346 0.249663
0.084750 0.203851 0.226255
0.075338 0.299791 0.349827
0.028052 0.207206 0.290693
0.123049 0.253374 0.268553
0.085432 0.299668 0.301542
0.067936 0.261667 0.432653
0.017984 0.299645 0.429019
0.053873 0.299705 0.396677
0.100027 0.299792 0.389257
0.015293 0.419232 0.015319
0.066725 0.359882 0.010947
0.004896 0.497075 0.004889
0.040452 0.462282 0.086400
0.010805 0.360850 0.066805
0.045923 0.291217 0.053435
0.086725 0.470824 0.035026
0.052505 0.387637 0.052336
0.010010 0.439828 0.114788
0.064673 0.381650 0.112326
0.008183 0.498969 0.099156
0.071329 0.481681 0.106210
0.021814 0.333965 0.160689
0.061302 0.301821 0.164990
0.109192 0.490448 0.159648
0.050264 0.412491 0.147191
0.011314 0.443360 0.205334
0.070321 0.400040 0.199033
0.011577 0.497529 0.193183
0.057560 0.473546 0.191950
0.018072 0.317593 0.245685
0.060954 0.290084 0.243352
0.109544 0.488824 0.254070
0.045994 0.409091 0.240749
0.018969 0.342761 0.295216
0.072355 0.304543 0.293659
0.011969 0.488611 0.285111
0.059694 0.466249 0.289250
0.044430 0.287572 0.312892
0.026106 0.299709 0.356327
0.008084 0.410243 0.301999
0.057776 0.376248 0.300880
0.062577 0.243895 0.031422
0.185698 0.196369 0.036749
0.153316 0.208676 0.001656
0.177148 0.259808 0.135364
0.037970 0.194829 0.079877
0.200116 0.199533 0.105457
0.120935 0.187705 0.049340
0.180285 0.293096 0.097470
0.100310 0.194066 0.098703
0.160302 0.180037 0.079720
0.157945 0.178922 0.172460
0.200152 0.180935 0.147922
0.068556 0.171374 0.158665
0.186256 0.161098 0.202257
0.141874 0.187346 0.214708
0.199822 0.299124 0.199932
0.104734 0.157082 0.204275
0.199924 0.199426 0.200103
0.144619 0.146004 0.244607
0.182423 0.194992 0.242869
0.105184 0.175437 0.298353
0.188631 0.178761 0.288145
0.149945 0.231496 0.316297
0.195622 0.244806 0.302775
0.067866 0.239359 0.336841
0.200352 0.228788 0.356328
0.133787 0.224648 0.380420
0.208827 0.250171 0.400643
0.098424 0.299639 0.471911
0.162771 0.256385 0.406860
0.142299 0.298818 0.497752
0.189363 0.299973 0.481063
0.141056 0.208522 0.047740
0.167635 0.209618 0.086392
0.113587 0.343056 0.016681
0.165275 0.318796 0.101483
0.151574 0.281359 0.067853
0.173290 0.258404 0.026288
0.130534 0.282903 0.028768
0.142809 0.251564 0.101079
0.120431 0.339177 0.108393
0.163787 0.199422 0.131061
0.113830 0.399193 0.117362
0.160470 0.366034 0.117689
0.141059 0.204770 0.178118
0.186491 0.213438 0.167420
0.116740 0.363463 0.160955
0.161567 0.293510 0.172893
0.142333 0.319114 0.208878
0.169900 0.261470 0.210933
0.112706 0.381682 0.210766
0.172097 0.365012 0.206032
0.146455 0.192114 0.275418
0.199871 0.290174 0.299416
0.109566 0.303508 0.246598
0.174893 0.242364 0.260043
0.158105 0.273495 0.299212
0.161607 0.258308 0.357213
0.136983 0.318766 0.290704
0.199924 0.316573 0.300017
0.096894 0.299798 0.421746
0.139306 0.298585 0.449707
0.141669 0.299818 0.403936
0.178743 0.299138 0.382761
0.116381 0.445393 0.098402
0.160697 0.384136 0.021737
0.102944 0.499867 0.004912
0.150747 0.493415 0.000708
0.111300 0.402949 0.065328
0.156925 0.339284 0.058311
0.100103 0.489848 0.074456
0.149427 0.449460 0.049487
0.113556 0.499848 0.114322
0.164019 0.446027 0.112895
0.113495 0.566730 0.100431
0.153451 0.494877 0.087798
0.113723 0.432803 0.161253
0.158820 0.394453 0.159059
0.062043 0.495792 0.148889
0.155681 0.484937 0.148981
0.101409 0.483105 0.206060
0.152816 0.461078 0.194243
0.102143 0.555200 0.197142
0.150727 0.508399 0.197420
0.099341 0.406363 0.253411
0.154070 0.385921 0.248409
0.061390 0.482846 0.240688
0.156262 0.477299 0.240419
0.106705 0.397793 0.300054
0.173666 0.393413 0.294793
0.098704 0.525195 0.295942
0.175628 0.499860 0.277822
0.134545 0.299686 0.356163
0.177147 0.299839 0.336652
0.100052 0.464194 0.305362
0.139133 0.435139 0.281338
0.243192 0.236275 0.040828
0.276383 0.251316 0.006736
0.253246 0.287555 0.140695
0.296308 0.246974 0.052929
0.204201 0.259813 0.068153
0.291953 0.237425 0.103446
0.214660 0.240565 0.100822
0.341233 0.251765 0.021622
0.214821 0.212913 0.085071
0.262320 0.205597 0.092570
0.239859 0.195655 0.136464
0.312570 0.222529 0.164483
0.228579 0.215747 0.180573
0.268435 0.193774 0.177118
0.234504 0.270191 0.178104
0.299931 0.296770 0.202928
0.212558 0.209068 0.241083
0.294194 0.212585 0.218418
0.254542 0.230317 0.237924
0.294348 0.259770 0.232161
0.219326 0.238812 0.279655
0.281291 0.250550 0.277983
0.244094 0.276018 0.291105
0.300204 0.299920 0.306053
0.234979 0.246299 0.327803
0.282578 0.236354 0.331889
0.250454 0.246280 0.375213
0.294749 0.218526 0.375937
0.220698 0.274804 0.451475
0.264001 0.299372 0.451338
0.237741 0.299296 0.492532
0.293431 0.299584 0.490253
0.231138 0.282718 0.029785
0.275334 0.299289 0.014649
0.199750 0.288572 0.102313
0.267884 0.281343 0.058832
0.224614 0.296862 0.100083
0.246541 0.250671 0.088452
0.198576 0.298706 0.053797
0.259854 0.290731 0.100008
0.207289 0.295504 0.148345
0.268789 0.230043 0.147579
0.209987 0.368028 0.115065
0.260088 0.327449 0.110052
0.223212 0.241792 0.135841
0.268556 0.241552 0.195305
0.205727 0.351200 0.165061
0.278357 0.292015 0.175787
0.214393 0.274465 0.218545
0.257141 0.299775 0.216992
0.216730 0.321726 0.216003
0.261672 0.330775 0.199987
0.206450 0.299923 0.256687
0.290654 0.299924 0.254037
0.195724 0.336399 0.256893
0.249298 0.271864 0.248170
0.216334 0.276389 0.360331
0.265695 0.280340 0.333774
0.224236 0.299917 0.320445
0.282984 0.299915 0.297830
0.182180 0.299750 0.433017
0.282248 0.253857 0.440234
0.248075 0.279572 0.411444
0.293517 0.260377 0.392709
0.202289 0.463089 0.014756
0.241752 0.329419 0.018330
0.196399 0.501713 0.015180
0.257167 0.485246 0.110491
0.196057 0.419220 0.065780
0.237839 0.314329 0.064960
0.192919 0.486327 0.060848
0.240288 0.420471 0.042577
0.201884 0.484094 0.100113
0.252901 0.411911 0.098859
0.199036 0.550075 0.102922
0.242146 0.486755 0.063070
0.195071 0.455888 0.150480
0.246462 0.382923 0.151912
0.197428 0.509493 0.151874
0.237216 0.480227 0.155802
0.202045 0.448982 0.199208
0.251881 0.389197 0.202000
0.278618 0.506575 0.291729
0.267382 0.497908 0.236611
0.205450 0.391972 0.248197
0.250285 0.312763 0.264739
0.214504 0.495850 0.256566
0.199997 0.491318 0.202076
0.200022 0.316639 0.353323
0.257350 0.299882 0.370019
0.216131 0.490708 0.339315
0.156791 0.485652 0.305366
0.208493 0.299693 0.400008
0.290644 0.299903 0.399921
0.199807 0.457741 0.294526
0.189903 0.382758 0.366102
0.336324 0.253795 0.127302
0.426386 0.252850 0.100007
0.410771 0.299366 0.099953
0.456266 0.299738 0.086203
0.313783 0.226025 0.093651
0.427512 0.257300 0.006236
0.390260 0.258225 0.068848
0.466910 0.298406 0.038086
0.351812 0.219312 0.060227
0.499443 0.276396 0.085122
0.382049 0.241760 0.118341
0.494747 0.299171 0.128114
0.350506 0.219201 0.196745
0.415796 0.253932 0.168014
0.416782 0.251891 0.219930
0.506742 0.299855 0.200044
0.332878 0.234202 0.239794
0.460602 0.273560 0.212738
0.388264 0.239966 0.258719
0.501954 0.298246 0.248421
0.309951 0.219295 0.299933
0.418685 0.253785 0.295338
0.387869 0.252755 0.310257
0.487027 0.299913 0.295436
0.322525 0.261777 0.320760
0.458844 0.259057 0.324899
0.381798 0.246547 0.363565
0.464181 0.299984 0.355132
0.325749 0.274704 0.460377
0.399516 0.250023 0.410703
0.364749 0.299106 0.439469
0.450394 0.292691 0.404850
0.341363 0.266034 0.070395
0.418924 0.299746 0.051646
0.299848 0.299925 0.100284
0.369231 0.299883 0.045373
0.311632 0.299713 0.051699
0.400551 0.299690 0.005703
0.299849 0.294313 0.096564
0.366876 0.299663 0.095577
0.300102 0.280829 0.138820
0.444445 0.298854 0.134489
0.297679 0.322024 0.142618
0.394904 0.297728 0.135450
0.366262 0.255611 0.166695
0.476156 0.299214 0.172320
0.300091 0.303682 0.199836
0.389104 0.298115 0.181292
0.339657 0.299675 0.188126
0.432422 0.299866 0.181924
0.328397 0.294647 0.237644
0.368687 0.259370 0.218658
0.347079 0.251337 0.282085
0.454279 0.299080 0.254218
0.333254 0.299900 0.283436
0.376865 0.299961 0.299970
0.305412 0.299582 0.353142
0.439262 0.299770 0.304939
0.333421 0.254543 0.366672
0.425607 0.271420 0.367242
0.306128 0.299275 0.426726
0.412520 0.296736 0.454041
0.349460 0.258332 0.413093
0.400650 0.299650 0.404703
0.293898 0.344834 0.015988
0.325123 0.299749 0.102145
0.283719 0.489020 0.011919
0.302815 0.399199 0.006373
0.289225 0.321843 0.059440
0.332702 0.299733 0.009301
0.289197 0.470964 0.059606
0.302623 0.372255 0.057229
0.300003 0.398325 0.109911
0.346352 0.299638 0.144340
0.295739 0.518322 0.099785
0.310009 0.449977 0.099998
0.293067 0.376059 0.168527
0.319103 0.264771 0.178017
0.278591 0.499582 0.173350
0.281796 0.445703 0.140901
0.357973 0.299905 0.206655
0.402299 0.299659 0.218414
0.312782 0.481200 0.246136
0.300044 0.401430 0.200765
0.368652 0.299614 0.251914
0.410163 0.298077 0.267129
0.310286 0.462250 0.184113
0.380841 0.388948 0.196181
0.353024 0.290261 0.340436
0.400923 0.299617 0.334758
0.201672 0.470065 0.392377
0.350655 0.323973 0.353376
0.337211 0.299332 0.389337
0.383361 0.289948 0.379828
0.277141 0.413091 0.392298
0.385909 0.327807 0.389056

CELL_TYPES 384
1
1
1
1
1
1
1
1
1
1
1
1
1
1
1
1
1
1
1
1
1
1
1
1
1
1
1
1
1
1
1
1
1
1
1
1
1
1
1
1
1
1
1
1
1
1
1
1
1
1
1
1
1
1
1
1
1
1
1
1
1
1
1
1
1
1
1
1
1
1
1
1
1
1
1
1
1
1
1
1
1
1
1
1
1
1
1
1
1
1
1
1
1
1
1
1
1
1
1
1
1
1
1
1
1
1
1
1
1
1
1
1
1
1
1
1
1
1
1
1
1
1
1
1
1
1
1
1
1
1
1
1
1
1
1
1
1
1
1
1
1
1
1
1
1
1
1
1
1
1
1
1
1
1
1
1
1
1
1
1
1
1
1
1
1
1
1
1
1
1
1
1
1
1
1
1
1
1
1
1
1
1
1
1
1
1
1
1
1
1
1
1
1
1
1
1
1
1
1
1
1
1
1
1
1
1
1
1
1
1
1
1
1
1
1
1
1
1
1
1
1
1
1
1
1
1
1
1
1
1
1
1
1
1
1
1
1
1
1
1
1
1
1
1
1
1
1
1
1
1
1
1
1
1
1
1
1
1
1
1
1
1
1
1
1
1
1
1
1
1
1
1
1
1
1
1
1
1
1
1
1
1
1
1
1
1
1
1
1
1
1
1
1
1
1
1
1
1
1
1
1
1
1
1
1
1
1
1
1
1
1
1
1
1
1
1
1
1
1
1
1
1
1
1
1
1
1
1
1
1
1
1
1
1
1
1
1
1
1
1
1
1
1
1
1
1
1
1
1
1
1
1
1
1
1
1
1
1
1
1
1
1
1
1
1
1
1
1
1
1
1
1
1
1
1
1
1
1
1
1
1
1
1
1

POINT_DATA 384
SCALARS radius float
LOOKUP_TABLE default
0.5
0.5
0.5
0.5
0.5
0.5
0.5
0.5
0.5
0.5
0.5
0.5
0.5
0.5
0.5
0.5
0.5
0.5
0.5
0.5
0.5
0.5
0.5
0.5
0.5
0.5
0.5
0.5
0.5
0.5
0.5
0.5
0.5
0.5
0.5
0.5
0.5
0.5
0.5
0.5
0.5
0.5
0.5
0.5
0.5
0.5
0.5
0.5
0.5
0.5
0.5
0.5
0.5
0.5
0.5
0.5
0.5
0.5
0.5
0.5
0.5
0.5
0.5
0.5
0.5
0.5
0.5
0.5
0.5
0.5
0.5
0.5
0.5
0.5
0.5
0.5
0.5
0.5
0.5
0.5
0.5
0.5
0.5
0.5
0.5
0.5
0.5
0.5
0.5
0.5
0.5
0.5
0.5
0.5
0.5
0.5
0.5
0.5
0.5
0.5
0.5
0.5
0.5
0.5
0.5
0.5
0.5
0.5
0.5
0.5
0.5
0.5
0.5
0.5
0.5
0.5
0.5
0.5
0.5
0.5
0.5
0.5
0.5
0.5
0.5
0.5
0.5
0.5
0.5
0.5
0.5
0.5
0.5
0.5
0.5
0.5
0.5
0.5
0.5
0.5
0.5
0.5
0.5
0.5
0.5
0.5
0.5
0.5
0.5
0.5
0.5
0.5
0.5
0.5
0.5
0.5
0.5
0.5
0.5
0.5
0.5
0.5
0.5
0.5
0.5
0.5
0.5
0.5
0.5
0.5
0.5
0.5
0.5
0.5
0.5
0.5
0.5
0.5
0.5
0.5
0.5
0.5
0.5
0.5
0.5
0.5
0.5
0.5
0.5
0.5
0.5
0.5
0.5
0.5
0.5
0.5
0.5
0.5
0.5
0.5
0.5
0.5
0.5
0.5
0.5
0.5
0.5
0.5
0.5
0.5
0.5
0.5
0.5
0.5
0.5
0.5
0.5
0.5
0.5
0.5
0.5
0.5
0.5
0.5
0.5
0.5
0.5
0.5
0.5
0.5
0.5
0.5
0.5
0.5
0.5
0.5
0.5
0.5
0.5
0.5
0.5
0.5
0.5
0.5
0.5
0.5
0.5
0.5
0.5
0.5
0.5
0.5
0.5
0.5
0.5
0.5
0.5
0.5
0.5
0.5
0.5
0.5
0.5
0.5
0.5
0.5
0.5
0.5
0.5
0.5
0.5
0.5
0.5
0.5
0.5
0.5
0.5
0.5
0.5
0.5
0.5
0.5
0.5
0.5
0.5
0.5
0.5
0.5
0.5
0.5
0.5
0.5
0.5
0.5
0.5
0.5
0.5
0.5
0.5
0.5
0.5
0.5
0.5
0.5
0.5
0.5
0.5
0.5
0.5
0.5
0.5
0.5
0.5
0.5
0.5
0.5
0.5
0.5
0.5
0.5
0.5
0.5
0.5
0.5
0.5
0.5
0.5
0.5
0.5
0.5
0.5
0.5
0.5
0.5
0.5
0.5
0.5
0.5
0.5
0.5
0.5
0.5
0.5
0.5
0.5
0.5
0.5
0.5
0.5
0.5
0.5
0.5
0.5
0.5
0.5
0.5
0.5
0.5
0.5
0.5
0.5
0.5
0.5
0.5
0.5
0.5
0.5
0.5
0.5
0.5
0.5
0.5
0.5
0.5
0.5
0.5
0.5
0.5
0.5
0.5
0.5
0.5
0.5
0.5
