# vtk DataFile Version 2.0
Title Data
ASCII
DATASET UNSTRUCTURED_GRID
POINTS 512 float
0.089643 0.028860 0.038498
0.087303 0.019094 0.057857
0.054049 0.059723 0.063539
0.105847 0.075115 0.047599
0.052837 0.012820 0.086388
0.048794 0.000938 0.001181
0.040669 0.074462 0.108606
0.100455 0.074045 0.018712
0.060686 0.076926 0.049827
0.023487 0.085764 0.023051
0.099916 0.033839 0.099913
0.018176 0.024687 0.092898
0.091172 0.090369 0.146064
0.000549 0.084271 0.136060
0.090840 0.024686 0.147839
0.023502 0.021169 0.138870
0.100002 0.095955 0.200017
0.038914 0.098642 0.204111
0.099988 0.070807 0.200003
0.025043 0.050693 0.195780
0.089453 0.022511 0.280666
0.056484 0.008215 0.267385
0.088398 0.071901 0.269858
0.057972 0.054853 0.272924
0.019820 0.027862 0.373928
0.066956 0.021547 0.374197
0.022038 0.073591 0.356404
0.075456 0.079283 0.360625
0.001349 0.022492 0.469310
0.071664 0.025048 0.486120
0.099408 0.079512 0.468606
0.070857 0.079009 0.481425
0.098707 0.096912 0.066448
0.100071 0.089166 0.057911
0.099943 0.062666 0.079670
0.096055 0.042051 0.059129
0.055904 0.092187 0.097426
0.055480 0.081714 0.016275
0.056771 0.026104 0.107505
0.100037 0.023171 0.028989
0.073012 0.038705 0.019916
0.106380 0.021670 0.051714
0.093991 0.092875 0.013998
0.110002 0.096241 0.050724
0.076016 0.053120 0.076990
0.098419 0.040175 0.135554
0.055418 0.076276 0.096999
0.100014 0.086656 0.131601
0.064561 0.067630 0.170401
0.098187 0.073438 0.160924
0.060865 0.052387 0.143110
0.101316 0.037601 0.154848
0.093185 0.067849 0.226734
0.034495 0.064285 0.221940
0.073083 0.016400 0.211069
0.004747 0.025944 0.211119
0.009528 0.096252 0.284902
0.078741 0.095080 0.284591
0.007136 0.052683 0.283931
0.088793 0.052057 0.294559
0.099496 0.092430 0.376880
0.037441 0.097211 0.390045
0.100019 0.035305 0.400015
0.044914 0.034557 0.412874
0.034575 0.089344 0.054075
0.078896 0.090281 0.036013
0.060091 0.056265 0.032495
0.082198 0.055776 0.047278
0.037964 0.092782 0.114439
0.099972 0.094617 0.099928
0.036432 0.047295 0.100949
0.099979 0.053775 0.099968
0.063893 0.067082 0.101000
0.099880 0.076210 0.099963
0.067582 0.008760 0.014142
0.004349 0.006826 0.103703
0.073449 0.072594 0.137349
0.021504 0.068420 0.135789
0.046809 0.003064 0.139213
0.096959 0.096528 0.141631
0.093797 0.097555 0.178935
0.010912 0.094948 0.171539
0.099826 0.030686 0.183215
0.037614 0.042721 0.181043
0.100041 0.094102 0.245278
0.052329 0.093797 0.247084
0.099559 0.048618 0.250110
0.055849 0.040357 0.251874
0.014896 0.012979 0.337899
0.051848 0.006558 0.340678
0.010416 0.050820 0.333055
0.052746 0.057012 0.330814
0.008209 0.012291 0.424090
0.076564 0.012191 0.441125
0.013451 0.055732 0.441903
0.075460 0.064479 0.436251
0.098259 0.021505 0.069379
0.099848 0.015681 0.099759
0.100070 0.051751 0.113755
0.013666 0.064384 0.085492
0.079966 0.017103 0.099813
0.014895 0.035954 0.049538
0.097648 0.061373 0.013840
0.044709 0.060311 0.016084
0.050766 0.056634 0.096082
0.099957 0.047934 0.100052
0.050146 0.097991 0.078663
0.099655 0.094311 0.079610
0.069033 0.050098 0.133965
0.100062 0.058813 0.136402
0.100026 0.098752 0.129780
0.001503 0.005876 0.134317
0.076151 0.081549 0.184380
0.029781 0.074725 0.175399
0.077751 0.013125 0.172154
0.099855 0.024698 0.165074
0.075571 0.079752 0.244064
0.021804 0.084930 0.220110
0.092233 0.028915 0.240612
0.035640 0.017547 0.228693
0.014857 0.084460 0.317847
0.061859 0.081845 0.314775
0.099998 0.026938 0.304717
0.078868 0.025200 0.321034
0.097977 0.084136 0.424185
0.054454 0.094702 0.415509
0.096806 0.056744 0.371878
0.052092 0.059760 0.380605
0.068972 0.088120 0.060738
0.145857 0.092323 0.091463
0.097954 0.004264 0.098889
0.146055 0.028707 0.108818
0.012095 0.070994 0.043854
0.136981 0.084869 0.099835
0.102271 0.035872 0.005575
0.132602 0.025172 0.012455
0.014858 0.084047 0.095532
0.132525 0.089732 0.034454
0.011794 0.038395 0.099044
0.140440 0.028875 0.046607
0.039739 0.088779 0.136113
0.130828 0.094246 0.132469
0.051185 0.032761 0.135496
0.132324 0.043520 0.137414
0.024396 0.007551 0.180649
0.131073 0.006544 0.182381
0.003183 0.067298 0.182159
0.132898 0.069720 0.177378
0.020013 0.027681 0.258130
0.112430 0.019642 0.255799
0.030720 0.074697 0.259040
0.118744 0.071722 0.259566
0.051755 0.039346 0.359669
0.126374 0.034378 0.361482
0.052970 0.088687 0.357828
0.120674 0.080222 0.362343
0.034334 0.049703 0.488739
0.104883 0.042841 0.474036
0.036029 0.095438 0.489627
0.102027 0.094772 0.464474
0.018119 0.039224 0.118677
0.130489 0.034575 0.058579
0.004258 0.094174 0.068106
0.114086 0.087033 0.100001
0.059927 0.032791 0.099173
0.125861 0.026896 0.099851
0.053768 0.099000 0.103576
0.132499 0.089158 0.099322
0.011592 0.054403 0.059801
0.117694 0.040860 0.099962
0.050639 0.016832 0.034018
0.096250 0.099769 0.099417
0.044838 0.045244 0.054884
0.033683 0.046579 0.005273
0.033156 0.005251 0.044487
0.013482 0.004292 0.004630
0.053715 0.092338 0.161081
0.038939 0.075843 0.153781
0.023890 0.050462 0.139425
0.110949 0.059794 0.151592
0.054773 0.089664 0.201435
0.061568 0.074859 0.200829
0.072657 0.048908 0.207584
0.058071 0.029389 0.207817
0.042581 0.009559 0.298036
0.118288 0.096042 0.285359
0.042648 0.067207 0.294460
0.102302 0.065816 0.300032
0.081275 0.086014 0.397153
0.095062 0.001611 0.398088
0.083859 0.049097 0.412177
0.086147 0.029632 0.401497
0.098515 0.068470 0.062801
0.140097 0.069547 0.072329
0.007726 0.016202 0.072933
0.142370 0.099276 0.054106
0.091031 0.075310 0.100326
0.137094 0.068149 0.014577
0.102271 0.009620 0.007084
0.145582 0.099472 0.091819
0.100122 0.084585 0.099985
0.137826 0.086395 0.059550
0.100021 0.024128 0.107205
0.137424 0.025139 0.081162
0.067078 0.087209 0.137459
0.130893 0.072422 0.132093
0.092984 0.014399 0.137200
0.100022 0.099378 0.100043
0.059229 0.003944 0.172080
0.127103 0.009015 0.162098
0.093455 0.055097 0.183790
0.128624 0.050837 0.173261
0.094693 0.002244 0.240523
0.100032 0.008981 0.200032
0.101841 0.055421 0.228566
0.100023 0.053137 0.200021
0.092290 0.015076 0.366992
0.109971 0.012291 0.347741
0.085364 0.049920 0.337762
0.103512 0.060982 0.338199
0.044410 0.024185 0.452060
0.107624 0.027100 0.438085
0.060523 0.057647 0.451112
0.122804 0.063906 0.435886
0.110308 0.059252 0.040889
0.134284 0.061839 0.052141
0.078578 0.099264 0.050776
0.129125 0.099432 0.099403
0.085361 0.047577 0.100029
0.139131 0.061821 0.099589
0.070000 0.093392 0.100092
0.134227 0.002641 0.099327
0.095143 0.096131 0.100682
0.121447 0.063975 0.099677
0.054508 0.033712 0.074014
0.130866 0.003781 0.038503
0.099960 0.069444 0.100026
0.043543 0.086078 0.066602
0.063472 0.009032 0.132547
0.050063 0.018878 0.056340
0.099839 0.085377 0.170527
0.123710 0.091342 0.170966
0.064782 0.040194 0.172375
0.039860 0.032854 0.165286
0.100035 0.087869 0.200692
0.079343 0.091284 0.232477
0.100006 0.031920 0.200080
0.055399 0.048453 0.231769
0.091516 0.096189 0.333115
0.100007 0.088242 0.309660
0.046751 0.034116 0.307348
0.118394 0.031431 0.304369
0.036966 0.087758 0.444807
0.109867 0.093688 0.414136
0.031484 0.065672 0.403482
0.097292 0.067502 0.396903
0.200410 0.095962 0.100034
0.280851 0.021986 0.089327
0.200176 0.068508 0.099960
0.272169 0.072530 0.087133
0.204179 0.099561 0.038904
0.268848 0.008430 0.057330
0.196899 0.049667 0.022984
0.273348 0.054983 0.057655
0.180537 0.006910 0.021675
0.259602 0.027428 0.019894
0.185810 0.067775 0.099999
0.259375 0.074761 0.031642
0.183208 0.006167 0.129761
0.259784 0.021512 0.111726
0.179954 0.068870 0.132887
0.260715 0.071738 0.120423
0.166986 0.094517 0.159601
0.231282 0.010609 0.144350
0.163484 0.058201 0.157127
0.233454 0.049263 0.135001
0.152259 0.010256 0.224215
0.204831 0.004353 0.168641
0.132268 0.051055 0.230510
0.210123 0.062449 0.166741
0.177839 0.034769 0.358953
0.256532 0.033727 0.368174
0.164765 0.075473 0.356764
0.242304 0.080236 0.367883
0.157218 0.029670 0.466385
0.210753 0.032918 0.456076
0.143931 0.085444 0.467197
0.111536 0.075999 0.504818
0.165396 0.072540 0.069573
0.229517 0.067720 0.087990
0.142416 0.048088 0.067967
0.207596 0.014577 0.079583
0.157894 0.071662 0.100414
0.221993 0.064991 0.035200
0.161400 0.040264 0.096567
0.210595 0.025742 0.003635
0.163988 0.091728 0.054680
0.201742 0.090874 0.055625
0.137571 0.047792 0.019112
0.204548 0.046658 0.070053
0.158305 0.076243 0.034878
0.203911 0.074623 0.059926
0.159399 0.056256 0.111857
0.208535 0.026843 0.057521
0.139211 0.066173 0.137515
0.195510 0.083790 0.129930
0.133735 0.017915 0.138183
0.192356 0.032862 0.129293
0.134502 0.084593 0.190896
0.167076 0.076498 0.166426
0.134267 0.035159 0.186030
0.165391 0.004385 0.171830
0.159182 0.004076 0.298395
0.204196 0.000134 0.300025
0.144651 0.063540 0.289258
0.185243 0.068984 0.300653
0.131689 0.091539 0.384873
0.194555 0.097537 0.378653
0.125102 0.044160 0.396203
0.194543 0.067839 0.398448
0.178109 0.097193 0.091240
0.246890 0.094989 0.100266
0.184093 0.030940 0.098022
0.251603 0.046793 0.099519
0.166800 0.095339 0.010774
0.248781 0.093882 0.050761
0.177981 0.048360 0.039074
0.253076 0.040909 0.055792
0.171904 0.007250 0.058080
0.242690 0.099590 0.100858
0.187272 0.057269 0.087803
0.230797 0.055164 0.100752
0.161557 0.006009 0.128021
0.212075 0.009801 0.101582
0.172990 0.048405 0.128755
0.208865 0.056358 0.107093
0.143379 0.095668 0.141704
0.234964 0.090110 0.128629
0.162390 0.034726 0.156773
0.208100 0.048068 0.147500
0.127409 0.093148 0.236195
0.171233 0.096367 0.195020
0.144582 0.050836 0.202326
0.187091 0.042954 0.181307
0.150989 0.011985 0.362209
0.222766 0.013731 0.342841
0.140587 0.058916 0.335433
0.208393 0.064755 0.345206
0.143222 0.022687 0.423225
0.187690 0.024362 0.417879
0.165144 0.062699 0.434250
0.229125 0.059145 0.418123
0.186136 0.079995 0.072923
0.243922 0.079360 0.078770
0.171254 0.013046 0.079481
0.242125 0.030004 0.090066
0.175507 0.074644 0.028165
0.220896 0.085167 0.020243
0.163937 0.024736 0.099600
0.229278 0.018651 0.034308
0.168590 0.086392 0.100176
0.200270 0.087325 0.100016
0.171126 0.041128 0.062797
0.200054 0.034753 0.100009
0.173231 0.091482 0.121385
0.235208 0.092893 0.070941
0.169414 0.032269 0.036246
0.230550 0.045407 0.054342
0.144105 0.083588 0.143940
0.206729 0.083070 0.147278
0.143275 0.031586 0.138243
0.203344 0.018826 0.142724
0.138667 0.080764 0.210885
0.177292 0.072845 0.183974
0.137939 0.018483 0.209198
0.169269 0.031200 0.173261
0.136500 0.092362 0.324314
0.180839 0.096204 0.333738
0.154287 0.035582 0.320182
0.196179 0.036634 0.315519
0.159786 0.092903 0.406602
0.229252 0.002896 0.408242
0.157284 0.052351 0.389391
0.212423 0.036835 0.383944
0.376985 0.026102 0.020128
0.470581 0.022359 0.002508
0.357524 0.075423 0.022040
0.471097 0.079272 0.099767
0.376720 0.021135 0.067035
0.487629 0.024898 0.073659
0.360997 0.079812 0.077075
0.483765 0.079264 0.073932
0.361413 0.039632 0.051825
0.491222 0.049790 0.035617
0.360209 0.088110 0.053344
0.491707 0.095699 0.037525
0.364047 0.035185 0.127424
0.476169 0.043822 0.106730
0.363216 0.080756 0.122826
0.464438 0.095492 0.106642
0.360884 0.034707 0.179131
0.468283 0.028067 0.158144
0.358644 0.075626 0.166020
0.501156 0.081654 0.110553
0.369860 0.034089 0.256411
0.458534 0.033290 0.212881
0.369509 0.080585 0.243350
0.507983 0.079146 0.155792
0.219128 0.000612 0.213271
0.267125 0.023093 0.212941
0.200007 0.063631 0.220790
0.284804 0.067993 0.219082
0.215482 0.018802 0.272100
0.271962 0.017452 0.283341
0.220754 0.065864 0.281346
0.271941 0.071164 0.277040
0.285138 0.096743 0.008960
0.379184 0.093091 0.099327
0.284812 0.052268 0.007140
0.403761 0.039284 0.100019
0.287102 0.095270 0.077951
0.392452 0.096763 0.038651
0.295788 0.053390 0.088835
0.414451 0.034746 0.046799
0.299812 0.010179 0.041669
0.399870 0.084742 0.079674
0.296245 0.067825 0.042075
0.416167 0.048203 0.080691
0.288106 0.095765 0.118176
0.399669 0.001706 0.095459
0.299985 0.064928 0.101110
0.401065 0.031201 0.095525
0.298843 0.005468 0.160886
0.386637 0.091533 0.132414
0.290956 0.064923 0.144704
0.398880 0.045064 0.126388
0.300151 0.002333 0.205158
0.380699 0.097535 0.195867
0.301088 0.068872 0.185430
0.399856 0.066790 0.196089
0.170072 0.079977 0.218292
0.248378 0.072020 0.157610
0.169220 0.046694 0.216763
0.268870 0.034963 0.140546
0.155218 0.072778 0.250519
0.238240 0.067172 0.220245
0.139885 0.033084 0.263492
0.221819 0.022192 0.229574
0.339458 0.013451 0.014465
0.424786 0.012425 0.009455
0.336417 0.050701 0.011208
0.443584 0.055661 0.014077
0.342116 0.007741 0.052841
0.442423 0.013125 0.078227
0.331755 0.057373 0.053156
0.439105 0.065584 0.079815
0.369300 0.014696 0.093049
0.454229 0.024750 0.045366
0.340637 0.050816 0.084933
0.453175 0.058637 0.059699
0.348350 0.014109 0.110977
0.440260 0.028445 0.110212
0.337791 0.060790 0.106119
0.438950 0.065292 0.125771
0.364383 0.012503 0.152141
0.424919 0.023959 0.145957
0.336662 0.059253 0.142251
0.438416 0.064045 0.167542
0.344935 0.014182 0.222888
0.420400 0.024515 0.189646
0.347194 0.064759 0.209500
0.421398 0.059039 0.234965
0.199620 0.096317 0.200000
0.266981 0.098727 0.152846
0.217297 0.045554 0.196388
0.261972 0.050699 0.183825
0.155826 0.000742 0.265963
0.257972 0.099727 0.248973
0.183313 0.048546 0.263237
0.270199 0.045265 0.251084
0.318604 0.084255 0.013930
0.425378 0.084403 0.099038
0.306750 0.027163 0.099901
0.372755 0.055876 0.096864
0.316683 0.082344 0.061600
0.418940 0.095271 0.056217
0.321571 0.025957 0.079240
0.381392 0.059211 0.051147
0.336456 0.095483 0.091862
0.447054 0.088251 0.037919
0.308414 0.034450 0.046478
0.405825 0.066439 0.032972
0.310478 0.089155 0.099996
0.417246 0.095526 0.114429
0.306081 0.031645 0.119767
0.393338 0.066290 0.096508
0.325991 0.092931 0.137403
0.408706 0.092640 0.161857
0.322211 0.035565 0.155108
0.391931 0.053324 0.158431
0.335221 0.096181 0.181551
0.409817 0.003353 0.231320
0.317636 0.037736 0.196730
0.387262 0.038297 0.212638
0.217639 0.082960 0.186663
0.258633 0.090331 0.192711
0.200003 0.029622 0.199997
0.239654 0.024674 0.176009
0.193085 0.089056 0.251074
0.237226 0.084144 0.244693
0.180122 0.022981 0.239440
0.233212 0.041699 0.243229

CELL_TYPES 512
1
1
1
1
1
1
1
1
1
1
1
1
1
1
1
1
1
1
1
1
1
1
1
1
1
1
1
1
1
1
1
1
1
1
1
1
1
1
1
1
1
1
1
1
1
1
1
1
1
1
1
1
1
1
1
1
1
1
1
1
1
1
1
1
1
1
1
1
1
1
1
1
1
1
1
1
1
1
1
1
1
1
1
1
1
1
1
1
1
1
1
1
1
1
1
1
1
1
1
1
1
1
1
1
1
1
1
1
1
1
1
1
1
1
1
1
1
1
1
1
1
1
1
1
1
1
1
1
1
1
1
1
1
1
1
1
1
1
1
1
1
1
1
1
1
1
1
1
1
1
1
1
1
1
1
1
1
1
1
1
1
1
1
1
1
1
1
1
1
1
1
1
1
1
1
1
1
1
1
1
1
1
1
1
1
1
1
1
1
1
1
1
1
1
1
1
1
1
1
1
1
1
1
1
1
1
1
1
1
1
1
1
1
1
1
1
1
1
1
1
1
1
1
1
1
1
1
1
1
1
1
1
1
1
1
1
1
1
1
1
1
1
1
1
1
1
1
1
1
1
1
1
1
1
1
1
1
1
1
1
1
1
1
1
1
1
1
1
1
1
1
1
1
1
1
1
1
1
1
1
1
1
1
1
1
1
1
1
1
1
1
1
1
1
1
1
1
1
1
1
1
1
1
1
1
1
1
1
1
1
1
1
1
1
1
1
1
1
1
1
1
1
1
1
1
1
1
1
1
1
1
1
1
1
1
1
1
1
1
1
1
1
1
1
1
1
1
1
1
1
1
1
1
1
1
1
1
1
1
1
1
1
1
1
1
1
1
1
1
1
1
1
1
1
1
1
1
1
1
1
1
1
1
1
1
1
1
1
1
1
1
1
1
1
1
1
1
1
1
1
1
1
1
1
1
1
1
1
1
1
1
1
1
1
1
1
1
1
1
1
1
1
1
1
1
1
1
1
1
1
1
1
1
1
1
1
1
1
1
1
1
1
1
1
1
1
1
1
1
1
1
1
1
1
1
1
1
1
1
1
1
1
1
1
1
1
1
1
1
1
1
1
1
1
1
1
1
1
1
1
1
1
1
1
1
1
1
1
1
1
1
1
1
1
1
1
1
1
1
1
1
1
1
1
1
1
1
1
1
1
1
1

POINT_DATA 512
SCALARS radius float
LOOKUP_TABLE default
0.5
0.5
0.5
0.5
0.5
0.5
0.5
0.5
0.5
0.5
0.5
0.5
0.5
0.5
0.5
0.5
0.5
0.5
0.5
0.5
0.5
0.5
0.5
0.5
0.5
0.5
0.5
0.5
0.5
0.5
0.5
0.5
0.5
0.5
0.5
0.5
0.5
0.5
0.5
0.5
0.5
0.5
0.5
0.5
0.5
0.5
0.5
0.5
0.5
0.5
0.5
0.5
0.5
0.5
0.5
0.5
0.5
0.5
0.5
0.5
0.5
0.5
0.5
0.5
0.5
0.5
0.5
0.5
0.5
0.5
0.5
0.5
0.5
0.5
0.5
0.5
0.5
0.5
0.5
0.5
0.5
0.5
0.5
0.5
0.5
0.5
0.5
0.5
0.5
0.5
0.5
0.5
0.5
0.5
0.5
0.5
0.5
0.5
0.5
0.5
0.5
0.5
0.5
0.5
0.5
0.5
0.5
0.5
0.5
0.5
0.5
0.5
0.5
0.5
0.5
0.5
0.5
0.5
0.5
0.5
0.5
0.5
0.5
0.5
0.5
0.5
0.5
0.5
0.5
0.5
0.5
0.5
0.5
0.5
0.5
0.5
0.5
0.5
0.5
0.5
0.5
0.5
0.5
0.5
0.5
0.5
0.5
0.5
0.5
0.5
0.5
0.5
0.5
0.5
0.5
0.5
0.5
0.5
0.5
0.5
0.5
0.5
0.5
0.5
0.5
0.5
0.5
0.5
0.5
0.5
0.5
0.5
0.5
0.5
0.5
0.5
0.5
0.5
0.5
0.5
0.5
0.5
0.5
0.5
0.5
0.5
0.5
0.5
0.5
0.5
0.5
0.5
0.5
0.5
0.5
0.5
0.5
0.5
0.5
0.5
0.5
0.5
0.5
0.5
0.5
0.5
0.5
0.5
0.5
0.5
0.5
0.5
0.5
0.5
0.5
0.5
0.5
0.5
0.5
0.5
0.5
0.5
0.5
0.5
0.5
0.5
0.5
0.5
0.5
0.5
0.5
0.5
0.5
0.5
0.5
0.5
0.5
0.5
0.5
0.5
0.5
0.5
0.5
0.5
0.5
0.5
0.5
0.5
0.5
0.5
0.5
0.5
0.5
0.5
0.5
0.5
0.5
0.5
0.5
0.5
0.5
0.5
0.5
0.5
0.5
0.5
0.5
0.5
0.5
0.5
0.5
0.5
0.5
0.5
0.5
0.5
0.5
0.5
0.5
0.5
0.5
0.5
0.5
0.5
0.5
0.5
0.5
0.5
0.5
0.5
0.5
0.5
0.5
0.5
0.5
0.5
0.5
0.5
0.5
0.5
0.5
0.5
0.5
0.5
0.5
0.5
0.5
0.5
0.5
0.5
0.5
0.5
0.5
0.5
0.5
0.5
0.5
0.5
0.5
0.5
0.5
0.5
0.5
0.5
0.5
0.5
0.5
0.5
0.5
0.5
0.5
0.5
0.5
0.5
0.5
0.5
0.5
0.5
0.5
0.5
0.5
0.5
0.5
0.5
0.5
0.5
0.5
0.5
0.5
0.5
0.5
0.5
0.5
0.5
0.5
0.5
0.5
0.5
0.5
0.5
0.5
0.5
0.5
0.5
0.5
0.5
0.5
0.5
0.5
0.5
0.5
0.5
0.5
0.5
0.5
0.5
0.5
0.5
0.5
0.5
0.5
0.5
0.5
0.5
0.5
0.5
0.5
0.5
0.5
0.5
0.5
0.5
0.5
0.5
0.5
0.5
0.5
0.5
0.5
0.5
0.5
0.5
0.5
0.5
0.5
0.5
0.5
0.5
0.5
0.5
0.5
0.5
0.5
0.5
0.5
0.5
0.5
0.5
0.5
0.5
0.5
0.5
0.5
0.5
0.5
0.5
0.5
0.5
0.5
0.5
0.5
0.5
0.5
0.5
0.5
0.5
0.5
0.5
0.5
0.5
0.5
0.5
0.5
0.5
0.5
0.5
0.5
0.5
0.5
0.5
0.5
0.5
0.5
0.5
0.5
0.5
0.5
0.5
0.5
0.5
0.5
0.5
0.5
0.5
0.5
0.5
0.5
0.5
0.5
0.5
0.5
0.5
0.5
0.5
0.5
0.5
0.5
0.5
0.5
0.5
0.5
0.5
0.5
0.5
0.5
0.5
0.5
0.5
0.5
0.5
0.5
0.5
0.5
0.5
0.5
0.5
0.5
0.5
0.5
0.5
0.5
0.5
0.5
0.5
0.5
0.5
0.5
0.5
0.5
0.5
0.5
0.5
