# vtk DataFile Version 2.0
Title Data
ASCII
DATASET UNSTRUCTURED_GRID
POINTS 512 float
0.014049 0.069561 0.094594
0.000496 0.065095 0.010438
0.021381 0.008085 0.090878
0.126429 0.020680 0.054553
0.035729 0.071764 0.100112
0.099398 0.054871 0.099626
0.098634 0.026787 0.130467
0.048215 0.010279 0.015678
0.008772 0.025974 0.079414
0.080113 0.013933 0.017275
0.018410 0.099682 0.005581
0.099594 0.070630 0.099846
0.008313 0.029823 0.155596
0.124340 0.023106 0.161132
0.101055 0.073556 0.149944
0.052214 0.066754 0.145768
0.058481 0.062282 0.186053
0.015042 0.041760 0.191291
0.019462 0.017838 0.218977
0.018638 0.088985 0.183700
0.089062 0.075139 0.259911
0.045520 0.054563 0.252891
0.076085 0.018160 0.259114
0.044243 0.006723 0.257156
0.056665 0.090460 0.346371
0.076125 0.074911 0.348101
0.007103 0.011872 0.304376
0.060296 0.018979 0.322880
0.036812 0.064684 0.462370
0.098869 0.082854 0.451820
0.033810 0.030603 0.437207
0.091733 0.028605 0.448413
0.046494 0.057004 0.086060
0.100893 0.028662 0.004319
0.130321 0.099211 0.007840
0.037820 0.089035 0.075107
0.083242 0.040137 0.011811
0.091489 0.014407 0.047037
0.099923 0.079682 0.103294
0.096282 0.084723 0.067347
0.014669 0.077898 0.120440
0.121346 0.079872 0.099977
0.036317 0.045113 0.019464
0.132365 0.046729 0.080662
0.008214 0.091741 0.090259
0.043032 0.083155 0.133847
0.090669 0.008039 0.093890
0.134808 0.032290 0.128802
0.099545 0.012815 0.157971
0.044846 0.014735 0.166102
0.084195 0.095086 0.156003
0.130863 0.087547 0.183474
0.058113 0.005701 0.210842
0.096237 0.096774 0.225286
0.027235 0.062633 0.217360
0.124278 0.079581 0.220754
0.100335 0.056521 0.260239
0.067546 0.047023 0.263717
0.127377 0.095814 0.269928
0.085401 0.010784 0.282717
0.100022 0.037328 0.319257
0.065040 0.045934 0.352393
0.032463 0.086210 0.375952
0.090185 0.084083 0.393640
0.058367 0.042766 0.085806
0.033230 0.033679 0.124202
0.089598 0.086755 0.055528
0.051759 0.097395 0.124691
0.051739 0.049403 0.130349
0.073665 0.043736 0.098033
0.075439 0.077144 0.025645
0.102546 0.096322 0.016302
0.073134 0.003949 0.132089
0.049264 0.032943 0.055305
0.126543 0.065162 0.041921
0.091910 0.063817 0.133479
0.119273 0.015870 0.127224
0.012426 0.004192 0.122747
0.095684 0.052217 0.154766
0.060033 0.041411 0.164370
0.063767 0.054814 0.217213
0.034774 0.049070 0.161818
0.099969 0.080519 0.200059
0.078431 0.088329 0.187554
0.127514 0.040292 0.250799
0.028765 0.038788 0.239383
0.099403 0.093233 0.251891
0.055591 0.090921 0.250970
0.003932 0.070941 0.309120
0.044777 0.056069 0.313775
0.016861 0.084483 0.279562
0.043763 0.003271 0.302858
0.041053 0.056468 0.387986
0.005042 0.060175 0.413908
0.027402 0.094585 0.415937
0.096957 0.034855 0.399977
0.091335 0.061646 0.070707
0.003061 0.078354 0.046003
0.099026 0.097871 0.125848
0.059391 0.016863 0.059111
0.057802 0.076994 0.001117
0.061341 0.080442 0.126583
0.019563 0.004176 0.051798
0.100378 0.000677 0.100002
0.098962 0.090728 0.095241
0.051265 0.094351 0.034410
0.014305 0.048753 0.084633
0.036094 0.029721 0.096400
0.099988 0.094723 0.112972
0.024109 0.000346 0.153209
0.135837 0.052825 0.129419
0.132253 0.073592 0.131535
0.099080 0.010650 0.186170
0.098953 0.015965 0.200349
0.021719 0.072253 0.157616
0.100008 0.061877 0.200011
0.074515 0.016290 0.234842
0.097975 0.038817 0.237318
0.062233 0.076186 0.224841
0.099045 0.083069 0.238335
0.046544 0.027567 0.284067
0.099966 0.034236 0.299878
0.099285 0.082340 0.282845
0.093079 0.063881 0.301073
0.016381 0.026998 0.387636
0.071622 0.054783 0.383627
0.003287 0.093384 0.341235
0.093594 0.005030 0.345485
0.098719 0.038036 0.072979
0.169517 0.034970 0.070550
0.031903 0.078912 0.046757
0.189447 0.084176 0.129762
0.099616 0.020788 0.094182
0.175273 0.015241 0.127488
0.131571 0.081499 0.013502
0.143663 0.068924 0.038224
0.059678 0.055479 0.029883
0.135209 0.026345 0.036254
0.055493 0.076899 0.079649
0.163640 0.071731 0.064497
0.054147 0.020489 0.128685
0.138409 0.044902 0.144959
0.063169 0.088997 0.163899
0.142425 0.090746 0.139248
0.097386 0.045665 0.197359
0.161335 0.054730 0.195741
0.099830 0.099667 0.199969
0.146815 0.018460 0.199764
0.029678 0.077122 0.257642
0.134183 0.070234 0.263610
0.103363 0.021890 0.253307
0.129544 0.017600 0.266411
0.045766 0.081624 0.319880
0.135537 0.089980 0.327308
0.072770 0.039769 0.319358
0.131265 0.019819 0.345480
0.059134 0.096602 0.455927
0.115454 0.001166 0.456159
0.087143 0.060986 0.461010
0.111012 0.039619 0.425328
0.121265 0.081618 0.158202
0.170533 0.081055 0.118625
0.125234 0.043053 0.099999
0.139141 0.016654 0.099222
0.101817 0.077434 0.015162
0.132600 0.086524 0.066470
0.073973 0.038265 0.134467
0.169231 0.037197 0.126278
0.131212 0.091919 0.054970
0.139138 0.088981 0.120589
0.100224 0.062128 0.034116
0.102800 0.038838 0.038144
0.056618 0.096474 0.082018
0.061432 0.090748 0.098176
0.063544 0.068846 0.100375
0.003982 0.054345 0.057382
0.088561 0.035179 0.162277
0.070819 0.014381 0.163768
0.122700 0.098337 0.160554
0.139473 0.003593 0.175032
0.092292 0.041840 0.219391
0.098293 0.030308 0.193867
0.052149 0.088956 0.218504
0.002316 0.070225 0.218643
0.059396 0.066285 0.284307
0.137465 0.047288 0.277197
0.004069 0.011907 0.260662
0.099996 0.001689 0.299948
0.097748 0.031692 0.347092
0.022008 0.058027 0.350240
0.095665 0.003048 0.377652
0.099972 0.065368 0.371016
0.099600 0.096717 0.098017
0.130952 0.017245 0.097547
0.137125 0.054142 0.099272
0.166675 0.053114 0.116649
0.098869 0.013067 0.065252
0.164792 0.010515 0.039208
0.129294 0.043466 0.024804
0.176028 0.046983 0.097033
0.099395 0.036736 0.099653
0.137870 0.032842 0.074131
0.099994 0.051028 0.119136
0.137294 0.073977 0.097036
0.100006 0.032353 0.122376
0.140475 0.000867 0.129384
0.094686 0.079970 0.127207
0.051049 0.065573 0.052811
0.099168 0.055690 0.171804
0.135944 0.064012 0.177074
0.099991 0.092246 0.199931
0.144249 0.093936 0.194085
0.088263 0.063975 0.236821
0.099993 0.074140 0.193744
0.128085 0.004814 0.222991
0.050735 0.099275 0.185187
0.097030 0.071057 0.328589
0.127626 0.051121 0.318625
0.096538 0.090785 0.319423
0.103788 0.017696 0.300273
0.060982 0.063988 0.423285
0.108518 0.076811 0.410541
0.077474 0.094112 0.419334
0.132962 0.005719 0.397658
0.137416 0.000100 0.050083
0.155722 0.003632 0.094664
0.098942 0.053509 0.057882
0.164856 0.053230 0.099727
0.099563 0.096810 0.050607
0.168718 0.096410 0.077016
0.018440 0.031581 0.039877
0.176480 0.064787 0.127001
0.072253 0.042251 0.051124
0.133311 0.097478 0.095870
0.072347 0.092431 0.048872
0.139121 0.061679 0.070043
0.060513 0.009933 0.088842
0.063696 0.026793 0.098270
0.002640 0.054761 0.126481
0.097466 0.076893 0.077650
0.133734 0.040543 0.167182
0.136148 0.047258 0.191622
0.102404 0.092824 0.152834
0.083825 0.071867 0.162014
0.051733 0.035466 0.191048
0.054827 0.029943 0.216810
0.040528 0.078056 0.187049
0.011964 0.096370 0.224278
0.100019 0.047656 0.291002
0.020868 0.044569 0.281249
0.064138 0.089029 0.289014
0.115806 0.077736 0.299941
0.064698 0.022288 0.414365
0.119697 0.039896 0.385126
0.058775 0.012649 0.377704
0.030979 0.022164 0.346378
0.201285 0.025065 0.014286
0.271139 0.079903 0.044970
0.219299 0.024784 0.098896
0.272381 0.022237 0.047491
0.195752 0.064176 0.017303
0.260008 0.046674 0.098907
0.224072 0.092060 0.048235
0.274767 0.003972 0.017286
0.199981 0.057685 0.099961
0.263396 0.077417 0.103251
0.199596 0.098698 0.069812
0.270578 0.019140 0.103848
0.213358 0.056866 0.128529
0.281817 0.067394 0.132259
0.205407 0.011936 0.139058
0.271727 0.008118 0.131142
0.201584 0.034191 0.156325
0.256485 0.057310 0.143381
0.181822 0.002351 0.170201
0.251636 0.096393 0.140015
0.162998 0.061887 0.232329
0.235119 0.056447 0.172487
0.142146 0.096702 0.235543
0.234064 0.007065 0.172582
0.179625 0.084602 0.321358
0.261458 0.089803 0.314637
0.170672 0.021193 0.331386
0.246525 0.031503 0.319384
0.149969 0.083213 0.435358
0.233501 0.072026 0.400271
0.154828 0.035093 0.426854
0.061076 0.029536 0.483751
0.176112 0.022483 0.099370
0.234355 0.009071 0.042102
0.157742 0.089220 0.088307
0.233100 0.059369 0.032438
0.172402 0.012556 0.008995
0.240347 0.012504 0.081816
0.164316 0.083485 0.097068
0.232895 0.077159 0.065209
0.167118 0.039897 0.047562
0.223214 0.043198 0.094477
0.169191 0.093723 0.037560
0.209770 0.093850 0.097417
0.162528 0.018570 0.078055
0.234024 0.099657 0.095249
0.188105 0.096988 0.123753
0.221269 0.069144 0.075123
0.160406 0.007032 0.139569
0.227657 0.022417 0.125355
0.149499 0.068209 0.155733
0.222576 0.076943 0.120053
0.166702 0.029902 0.202574
0.199957 0.025654 0.199872
0.163896 0.075440 0.202036
0.181007 0.056294 0.164771
0.179029 0.064511 0.264886
0.202183 0.042377 0.291826
0.161831 0.096955 0.280573
0.189673 0.009825 0.293017
0.132042 0.055205 0.351019
0.204772 0.047674 0.334308
0.123889 0.083441 0.363166
0.197623 0.018562 0.364452
0.203533 0.049866 0.070932
0.263089 0.041845 0.083151
0.197186 0.078245 0.044657
0.270150 0.096793 0.061296
0.164926 0.045721 0.028548
0.256234 0.039529 0.118314
0.199839 0.000120 0.099943
0.251981 0.082931 0.096243
0.176443 0.060782 0.069592
0.245635 0.060265 0.081170
0.202170 0.095766 0.029505
0.256103 0.093507 0.085164
0.198043 0.055777 0.147197
0.233314 0.062073 0.001146
0.202426 0.091254 0.152479
0.232494 0.095539 0.125871
0.169891 0.039780 0.163190
0.244568 0.035512 0.137536
0.177993 0.086266 0.165841
0.226825 0.089215 0.161111
0.138658 0.043791 0.230668
0.188616 0.052887 0.230953
0.169436 0.090600 0.207578
0.199996 0.090714 0.199363
0.165152 0.060161 0.338880
0.231951 0.067469 0.300924
0.142486 0.008274 0.306111
0.204706 0.009812 0.304778
0.149345 0.067536 0.394354
0.192755 0.068103 0.375105
0.178472 0.002081 0.403055
0.238181 0.007689 0.373271
0.200287 0.015695 0.061400
0.245011 0.025167 0.017837
0.200052 0.072937 0.099576
0.242371 0.083943 0.035324
0.199934 0.027085 0.099942
0.241741 0.028336 0.065212
0.161378 0.078940 0.014450
0.236788 0.068185 0.125577
0.201826 0.032302 0.053599
0.204783 0.047827 0.036012
0.199968 0.088882 0.097368
0.199965 0.085248 0.100029
0.199978 0.035048 0.107707
0.237811 0.045131 0.050109
0.179159 0.082229 0.056975
0.241300 0.096489 0.099443
0.166591 0.018263 0.165026
0.223561 0.028891 0.161966
0.162963 0.082329 0.160975
0.221045 0.071248 0.162780
0.111508 0.027592 0.199967
0.199993 0.005830 0.194641
0.128217 0.062195 0.217575
0.200014 0.077020 0.195552
0.148592 0.038151 0.303381
0.189094 0.051704 0.300007
0.156098 0.075418 0.296297
0.200039 0.080408 0.290514
0.161306 0.034889 0.375435
0.236198 0.052321 0.360936
0.160789 0.093087 0.361582
0.218300 0.088027 0.338392
0.357354 0.085157 0.021662
0.475323 0.057459 0.028590
0.338515 0.022480 0.025831
0.455152 0.025303 0.043955
0.361116 0.066294 0.045955
0.466734 0.081217 0.096734
0.336788 0.028347 0.076885
0.457628 0.028327 0.096214
0.341813 0.085936 0.075332
0.480466 0.091629 0.050859
0.336209 0.041463 0.061756
0.469237 0.056326 0.078136
0.340612 0.088828 0.131649
0.479828 0.001647 0.108710
0.356291 0.022401 0.128699
0.434197 0.048051 0.116467
0.336142 0.082476 0.177737
0.450929 0.078575 0.140048
0.346280 0.017208 0.167900
0.500126 0.031817 0.064434
0.335159 0.087116 0.247726
0.455041 0.058631 0.184504
0.337779 0.037266 0.242141
0.462284 0.033347 0.140765
0.221599 0.043633 0.215240
0.267763 0.074020 0.225540
0.211888 0.013647 0.215323
0.284944 0.018839 0.210747
0.227039 0.060383 0.260317
0.268315 0.069652 0.272899
0.236404 0.008419 0.279931
0.275766 0.022588 0.281400
0.275426 0.061694 0.064240
0.345275 0.037670 0.099070
0.297460 0.086301 0.034385
0.402931 0.096634 0.042238
0.270252 0.052197 0.030109
0.369043 0.057954 0.092392
0.299998 0.096497 0.099388
0.399399 0.076720 0.081351
0.298697 0.054205 0.022048
0.373722 0.034427 0.087739
0.280679 0.008580 0.094656
0.378177 0.092616 0.073144
0.297059 0.048547 0.118985
0.382130 0.054716 0.006709
0.300010 0.019887 0.083694
0.393183 0.082172 0.100598
0.294316 0.056269 0.162032
0.374773 0.060406 0.125079
0.295928 0.024139 0.140453
0.382035 0.094259 0.124317
0.299979 0.053848 0.199959
0.353041 0.046734 0.198561
0.300024 0.016571 0.190331
0.389852 0.020781 0.197159
0.172374 0.021291 0.226641
0.264999 0.014999 0.171892
0.188145 0.091928 0.227566
0.272421 0.087338 0.139045
0.166233 0.017274 0.249409
0.254676 0.004154 0.213642
0.156813 0.081893 0.250330
0.229368 0.069774 0.216840
0.323857 0.072352 0.099942
0.397022 0.063249 0.052596
0.326235 0.001214 0.088213
0.431985 0.095990 0.012935
0.327207 0.058824 0.032381
0.427240 0.059648 0.089890
0.317067 0.098745 0.015988
0.400000 0.019545 0.099634
0.346229 0.069451 0.091235
0.436145 0.069174 0.046237
0.326618 0.093448 0.054049
0.441270 0.096121 0.075560
0.326573 0.062074 0.126065
0.412797 0.084324 0.099997
0.314834 0.009795 0.116008
0.425251 0.006649 0.131413
0.357808 0.061718 0.157265
0.408000 0.067362 0.141158
0.308496 0.003508 0.154812
0.418900 0.002704 0.172413
0.313533 0.067444 0.213094
0.396290 0.065067 0.184563
0.326219 0.011315 0.208856
0.463749 0.005818 0.175871
0.199964 0.043636 0.197198
0.272679 0.036983 0.164000
0.230510 0.088813 0.201521
0.271371 0.087697 0.176476
0.168557 0.037113 0.266677
0.293607 0.044968 0.245456
0.200301 0.099152 0.256882
0.290748 0.097112 0.245233
0.300678 0.033312 0.100002
0.419926 0.038578 0.018631
0.291216 0.075644 0.099993
0.357092 0.100000 0.101086
0.301929 0.020876 0.048707
0.398443 0.039387 0.057552
0.313797 0.064341 0.065298
0.367093 0.005756 0.059798
0.300040 0.043939 0.099961
0.423938 0.024026 0.069997
0.299612 0.078394 0.081488
0.382507 0.012104 0.007500
0.295087 0.044437 0.066264
0.399995 0.028558 0.105850
0.299991 0.087167 0.104447
0.368262 0.030207 0.040621
0.334033 0.038921 0.130707
0.389553 0.032084 0.152244
0.309630 0.081168 0.150983
0.375427 0.093629 0.162062
0.321679 0.044606 0.170015
0.383602 0.052546 0.230059
0.299991 0.085436 0.199043
0.363684 0.089049 0.208955
0.243684 0.034507 0.195806
0.267898 0.051124 0.204600
0.199967 0.060796 0.198425
0.259281 0.073090 0.180172
0.209861 0.030305 0.252674
0.251502 0.035052 0.243416
0.204177 0.078686 0.241940
0.242186 0.094438 0.246021

CELL_TYPES 512
1
1
1
1
1
1
1
1
1
1
1
1
1
1
1
1
1
1
1
1
1
1
1
1
1
1
1
1
1
1
1
1
1
1
1
1
1
1
1
1
1
1
1
1
1
1
1
1
1
1
1
1
1
1
1
1
1
1
1
1
1
1
1
1
1
1
1
1
1
1
1
1
1
1
1
1
1
1
1
1
1
1
1
1
1
1
1
1
1
1
1
1
1
1
1
1
1
1
1
1
1
1
1
1
1
1
1
1
1
1
1
1
1
1
1
1
1
1
1
1
1
1
1
1
1
1
1
1
1
1
1
1
1
1
1
1
1
1
1
1
1
1
1
1
1
1
1
1
1
1
1
1
1
1
1
1
1
1
1
1
1
1
1
1
1
1
1
1
1
1
1
1
1
1
1
1
1
1
1
1
1
1
1
1
1
1
1
1
1
1
1
1
1
1
1
1
1
1
1
1
1
1
1
1
1
1
1
1
1
1
1
1
1
1
1
1
1
1
1
1
1
1
1
1
1
1
1
1
1
1
1
1
1
1
1
1
1
1
1
1
1
1
1
1
1
1
1
1
1
1
1
1
1
1
1
1
1
1
1
1
1
1
1
1
1
1
1
1
1
1
1
1
1
1
1
1
1
1
1
1
1
1
1
1
1
1
1
1
1
1
1
1
1
1
1
1
1
1
1
1
1
1
1
1
1
1
1
1
1
1
1
1
1
1
1
1
1
1
1
1
1
1
1
1
1
1
1
1
1
1
1
1
1
1
1
1
1
1
1
1
1
1
1
1
1
1
1
1
1
1
1
1
1
1
1
1
1
1
1
1
1
1
1
1
1
1
1
1
1
1
1
1
1
1
1
1
1
1
1
1
1
1
1
1
1
1
1
1
1
1
1
1
1
1
1
1
1
1
1
1
1
1
1
1
1
1
1
1
1
1
1
1
1
1
1
1
1
1
1
1
1
1
1
1
1
1
1
1
1
1
1
1
1
1
1
1
1
1
1
1
1
1
1
1
1
1
1
1
1
1
1
1
1
1
1
1
1
1
1
1
1
1
1
1
1
1
1
1
1
1
1
1
1
1
1
1
1
1
1
1
1
1
1
1
1
1
1
1
1
1
1
1
1
1
1
1
1
1
1
1
1
1
1
1
1
1
1
1
1
1
1
1

POINT_DATA 512
SCALARS radius float
LOOKUP_TABLE default
0.5
0.5
0.5
0.5
0.5
0.5
0.5
0.5
0.5
0.5
0.5
0.5
0.5
0.5
0.5
0.5
0.5
0.5
0.5
0.5
0.5
0.5
0.5
0.5
0.5
0.5
0.5
0.5
0.5
0.5
0.5
0.5
0.5
0.5
0.5
0.5
0.5
0.5
0.5
0.5
0.5
0.5
0.5
0.5
0.5
0.5
0.5
0.5
0.5
0.5
0.5
0.5
0.5
0.5
0.5
0.5
0.5
0.5
0.5
0.5
0.5
0.5
0.5
0.5
0.5
0.5
0.5
0.5
0.5
0.5
0.5
0.5
0.5
0.5
0.5
0.5
0.5
0.5
0.5
0.5
0.5
0.5
0.5
0.5
0.5
0.5
0.5
0.5
0.5
0.5
0.5
0.5
0.5
0.5
0.5
0.5
0.5
0.5
0.5
0.5
0.5
0.5
0.5
0.5
0.5
0.5
0.5
0.5
0.5
0.5
0.5
0.5
0.5
0.5
0.5
0.5
0.5
0.5
0.5
0.5
0.5
0.5
0.5
0.5
0.5
0.5
0.5
0.5
0.5
0.5
0.5
0.5
0.5
0.5
0.5
0.5
0.5
0.5
0.5
0.5
0.5
0.5
0.5
0.5
0.5
0.5
0.5
0.5
0.5
0.5
0.5
0.5
0.5
0.5
0.5
0.5
0.5
0.5
0.5
0.5
0.5
0.5
0.5
0.5
0.5
0.5
0.5
0.5
0.5
0.5
0.5
0.5
0.5
0.5
0.5
0.5
0.5
0.5
0.5
0.5
0.5
0.5
0.5
0.5
0.5
0.5
0.5
0.5
0.5
0.5
0.5
0.5
0.5
0.5
0.5
0.5
0.5
0.5
0.5
0.5
0.5
0.5
0.5
0.5
0.5
0.5
0.5
0.5
0.5
0.5
0.5
0.5
0.5
0.5
0.5
0.5
0.5
0.5
0.5
0.5
0.5
0.5
0.5
0.5
0.5
0.5
0.5
0.5
0.5
0.5
0.5
0.5
0.5
0.5
0.5
0.5
0.5
0.5
0.5
0.5
0.5
0.5
0.5
0.5
0.5
0.5
0.5
0.5
0.5
0.5
0.5
0.5
0.5
0.5
0.5
0.5
0.5
0.5
0.5
0.5
0.5
0.5
0.5
0.5
0.5
0.5
0.5
0.5
0.5
0.5
0.5
0.5
0.5
0.5
0.5
0.5
0.5
0.5
0.5
0.5
0.5
0.5
0.5
0.5
0.5
0.5
0.5
0.5
0.5
0.5
0.5
0.5
0.5
0.5
0.5
0.5
0.5
0.5
0.5
0.5
0.5
0.5
0.5
0.5
0.5
0.5
0.5
0.5
0.5
0.5
0.5
0.5
0.5
0.5
0.5
0.5
0.5
0.5
0.5
0.5
0.5
0.5
0.5
0.5
0.5
0.5
0.5
0.5
0.5
0.5
0.5
0.5
0.5
0.5
0.5
0.5
0.5
0.5
0.5
0.5
0.5
0.5
0.5
0.5
0.5
0.5
0.5
0.5
0.5
0.5
0.5
0.5
0.5
0.5
0.5
0.5
0.5
0.5
0.5
0.5
0.5
0.5
0.5
0.5
0.5
0.5
0.5
0.5
0.5
0.5
0.5
0.5
0.5
0.5
0.5
0.5
0.5
0.5
0.5
0.5
0.5
0.5
0.5
0.5
0.5
0.5
0.5
0.5
0.5
0.5
0.5
0.5
0.5
0.5
0.5
0.5
0.5
0.5
0.5
0.5
0.5
0.5
0.5
0.5
0.5
0.5
0.5
0.5
0.5
0.5
0.5
0.5
0.5
0.5
0.5
0.5
0.5
0.5
0.5
0.5
0.5
0.5
0.5
0.5
0.5
0.5
0.5
0.5
0.5
0.5
0.5
0.5
0.5
0.5
0.5
0.5
0.5
0.5
0.5
0.5
0.5
0.5
0.5
0.5
0.5
0.5
0.5
0.5
0.5
0.5
0.5
0.5
0.5
0.5
0.5
0.5
0.5
0.5
0.5
0.5
0.5
0.5
0.5
0.5
0.5
0.5
0.5
0.5
0.5
0.5
0.5
0.5
0.5
0.5
0.5
0.5
0.5
0.5
0.5
0.5
0.5
0.5
0.5
0.5
0.5
0.5
0.5
0.5
0.5
0.5
0.5
0.5
0.5
0.5
0.5
0.5
0.5
0.5
0.5
0.5
0.5
0.5
0.5
0.5
0.5
0.5
0.5
0.5
0.5
0.5
0.5
0.5
