# vtk DataFile Version 2.0
Title Data
ASCII
DATASET UNSTRUCTURED_GRID
POINTS 384 float
0.022287 0.503650 0.022287
0.071978 0.503622 0.022239
0.025151 0.552212 0.025151
0.074918 0.552160 0.025226
0.022239 0.503622 0.071978
0.071925 0.503587 0.071925
0.025226 0.552160 0.074918
0.074995 0.552095 0.074995
0.022587 0.502811 0.121386
0.072330 0.502774 0.121324
0.025154 0.551423 0.124455
0.074976 0.551352 0.124535
0.022439 0.502924 0.170696
0.072172 0.502899 0.170627
0.025344 0.551488 0.173908
0.075169 0.551420 0.173984
0.023218 0.501077 0.219955
0.073063 0.501037 0.219877
0.025193 0.549547 0.222998
0.075111 0.549472 0.223045
0.022953 0.500998 0.269566
0.072787 0.500902 0.269486
0.025714 0.548928 0.271167
0.075648 0.548766 0.271119
0.022317 0.474420 0.311683
0.071958 0.474094 0.311637
0.026960 0.499590 0.325525
0.077385 0.499266 0.323306
0.021809 0.473701 0.362425
0.070749 0.481207 0.360875
0.027195 0.499345 0.381149
0.078137 0.499486 0.384918
0.019555 0.599222 0.019555
0.069048 0.599057 0.019362
0.020934 0.645989 0.020934
0.070300 0.645703 0.020835
0.019362 0.599057 0.069048
0.068848 0.598863 0.068848
0.020835 0.645703 0.070300
0.070182 0.645377 0.070182
0.020081 0.598366 0.118093
0.069673 0.598173 0.117881
0.021523 0.644900 0.119030
0.070980 0.644575 0.118874
0.019516 0.598203 0.166925
0.069087 0.597975 0.166705
0.021118 0.644612 0.167545
0.070534 0.644207 0.167355
0.021295 0.595969 0.215676
0.071063 0.595773 0.215450
0.022718 0.641663 0.215621
0.072334 0.641354 0.215393
0.020332 0.595593 0.265019
0.070081 0.595270 0.264795
0.021987 0.641190 0.264173
0.071544 0.640672 0.263915
0.023219 0.559955 0.315110
0.073167 0.558833 0.315171
0.023996 0.629344 0.311658
0.073820 0.629110 0.311439
0.022837 0.546236 0.362637
0.072756 0.543886 0.362426
0.023632 0.625407 0.361226
0.073414 0.624923 0.360985
0.021209 0.695497 0.021209
0.070683 0.695217 0.021105
0.020625 0.745814 0.020625
0.069986 0.745255 0.020497
0.021105 0.695217 0.070683
0.070568 0.694893 0.070568
0.020497 0.745255 0.069986
0.069834 0.744641 0.069834
0.021649 0.693925 0.119644
0.071218 0.693539 0.119507
0.021107 0.742746 0.118544
0.070500 0.742250 0.118348
0.021303 0.693683 0.168446
0.070848 0.693198 0.168293
0.020629 0.742491 0.167032
0.069973 0.741867 0.166793
0.022652 0.689596 0.216853
0.072373 0.689226 0.216687
0.022136 0.737251 0.214563
0.071653 0.736795 0.214286
0.022059 0.689152 0.265708
0.071754 0.688532 0.265529
0.021098 0.736748 0.262756
0.070527 0.735969 0.262431
0.023942 0.678860 0.313656
0.073827 0.678610 0.313528
0.023631 0.725232 0.309189
0.073377 0.724914 0.308916
0.023654 0.674835 0.363308
0.073528 0.674316 0.363165
0.022988 0.720490 0.358552
0.072670 0.719816 0.358228
0.121386 0.502811 0.022587
0.170696 0.502924 0.022439
0.124455 0.551423 0.025154
0.173908 0.551488 0.025344
0.121324 0.502774 0.072330
0.170627 0.502899 0.072172
0.124535 0.551352 0.074976
0.173984 0.551420 0.075169
0.121844 0.502107 0.121844
0.171270 0.502185 0.121671
0.124629 0.550690 0.124629
0.174169 0.550716 0.124820
0.121671 0.502185 0.171270
0.171083 0.502260 0.171083
0.124820 0.550716 0.174169
0.174349 0.550720 0.174349
0.122819 0.500544 0.220668
0.172586 0.500533 0.220470
0.125001 0.548952 0.223345
0.174864 0.548884 0.223460
0.122526 0.500347 0.270349
0.172276 0.500201 0.270148
0.125547 0.548337 0.271559
0.175409 0.548067 0.271505
0.121294 0.471664 0.311822
0.170148 0.471640 0.311498
0.127597 0.499861 0.326740
0.178804 0.499759 0.324184
0.120594 0.470940 0.362775
0.169171 0.478642 0.360988
0.127740 0.499481 0.382046
0.179426 0.499488 0.386648
0.118093 0.598366 0.020081
0.166925 0.598203 0.019516
0.119030 0.644900 0.021523
0.167545 0.644612 0.021118
0.117881 0.598173 0.069673
0.166705 0.597975 0.069087
0.118874 0.644575 0.070980
0.167355 0.644207 0.070534
0.118905 0.597509 0.118905
0.167973 0.597295 0.118287
0.119884 0.643749 0.119884
0.168598 0.643381 0.119366
0.118287 0.597295 0.167973
0.167332 0.596996 0.167332
0.119366 0.643381 0.168598
0.168010 0.642869 0.168010
0.120670 0.595336 0.216975
0.170316 0.595042 0.216325
0.121554 0.640881 0.216923
0.170655 0.640457 0.216271
0.119668 0.594838 0.266472
0.169292 0.594282 0.265826
0.120666 0.640271 0.265707
0.169670 0.639442 0.265015
0.122915 0.555177 0.317060
0.172870 0.553627 0.317013
0.123419 0.627792 0.313296
0.173019 0.627362 0.312675
0.122530 0.542110 0.364498
0.172334 0.538736 0.363904
0.122951 0.624022 0.362966
0.172470 0.623075 0.362312
0.119644 0.693925 0.021649
0.168446 0.693683 0.021303
0.118544 0.742746 0.021107
0.167032 0.742491 0.020629
0.119507 0.693539 0.071218
0.168293 0.693198 0.070848
0.118348 0.742250 0.070500
0.166793 0.741867 0.069973
0.120355 0.692302 0.120355
0.169366 0.691910 0.119943
0.119187 0.740592 0.119187
0.167760 0.740123 0.118564
0.119943 0.691910 0.169366
0.168922 0.691359 0.168922
0.118564 0.740123 0.167760
0.167051 0.739452 0.167051
0.121809 0.688511 0.218046
0.171175 0.688005 0.217580
0.120629 0.735805 0.215545
0.169507 0.735175 0.214739
0.121155 0.687869 0.267114
0.170495 0.686879 0.266640
0.119350 0.735026 0.263875
0.168068 0.733770 0.262987
0.123548 0.677446 0.315247
0.173288 0.676989 0.314858
0.122813 0.723856 0.310561
0.172218 0.723284 0.309744
0.123236 0.673588 0.364982
0.172956 0.672586 0.364575
0.122003 0.719327 0.359990
0.171281 0.718039 0.359084
0.219955 0.501077 0.023218
0.269566 0.500998 0.022953
0.222998 0.549547 0.025193
0.271167 0.548928 0.025714
0.219877 0.501037 0.073063
0.269486 0.500902 0.072787
0.223045 0.549472 0.075111
0.271119 0.548766 0.075648
0.220668 0.500544 0.122819
0.270349 0.500347 0.122526
0.223345 0.548952 0.125001
0.271559 0.548337 0.125547
0.220470 0.500533 0.172586
0.270148 0.500201 0.172276
0.223460 0.548884 0.174864
0.271505 0.548067 0.175409
0.220626 0.484569 0.220626
0.269805 0.484367 0.220355
0.224760 0.505253 0.224760
0.274590 0.503873 0.225006
0.220355 0.484367 0.269805
0.269567 0.489201 0.269567
0.225006 0.503873 0.274590
0.275202 0.504533 0.275202
0.218779 0.466243 0.313905
0.267619 0.466839 0.312196
0.229728 0.499979 0.329463
0.281490 0.499426 0.326484
0.217697 0.466507 0.363498
0.266387 0.473583 0.361532
0.229208 0.499538 0.383859
0.281937 0.499220 0.389816
0.215676 0.595969 0.021295
0.265019 0.595593 0.020332
0.215621 0.641663 0.022718
0.264173 0.641190 0.021987
0.215450 0.595773 0.071063
0.264795 0.595270 0.070081
0.215393 0.641354 0.072334
0.263915 0.640672 0.071544
0.216975 0.595336 0.120670
0.266472 0.594838 0.119668
0.216923 0.640881 0.121554
0.265707 0.640271 0.120666
0.216325 0.595042 0.170316
0.265826 0.594282 0.169292
0.216271 0.640457 0.170655
0.265015 0.639442 0.169670
0.219454 0.573987 0.219454
0.269266 0.571255 0.218540
0.219387 0.635909 0.219387
0.268589 0.635009 0.218328
0.218540 0.571255 0.269266
0.268295 0.566832 0.268295
0.218328 0.635009 0.268589
0.267480 0.633412 0.267480
0.222199 0.544112 0.319755
0.271966 0.541838 0.319398
0.222272 0.624125 0.316677
0.271868 0.623239 0.315681
0.221446 0.535188 0.367921
0.270650 0.529769 0.366611
0.221691 0.620820 0.366411
0.271198 0.619070 0.365361
0.216853 0.689596 0.022652
0.265708 0.689152 0.022059
0.214563 0.737251 0.022136
0.262756 0.736748 0.021098
0.216687 0.689226 0.072373
0.265529 0.688532 0.071754
0.214286 0.736795 0.071653
0.262431 0.735969 0.070527
0.218046 0.688511 0.121809
0.267114 0.687869 0.121155
0.215545 0.735805 0.120629
0.263875 0.735026 0.119350
0.217580 0.688005 0.171175
0.266640 0.686879 0.170495
0.214739 0.735175 0.169507
0.262987 0.733770 0.168068
0.220286 0.684530 0.220286
0.269726 0.683556 0.219611
0.217704 0.730453 0.217704
0.266358 0.729153 0.216121
0.219611 0.683556 0.269726
0.269050 0.681787 0.269050
0.216121 0.729153 0.266358
0.264638 0.726684 0.264638
0.222736 0.673902 0.318313
0.272436 0.672980 0.317754
0.221176 0.720258 0.313732
0.270445 0.719111 0.312145
0.222421 0.670493 0.368130
0.272071 0.668648 0.367536
0.220173 0.716273 0.363276
0.269326 0.713908 0.361567
0.311683 0.474420 0.022317
0.362425 0.473701 0.021809
0.325525 0.499590 0.026960
0.381149 0.499345 0.027195
0.311637 0.474094 0.071958
0.360875 0.481207 0.070749
0.323306 0.499266 0.077385
0.384918 0.499486 0.078137
0.311822 0.471664 0.121294
0.362775 0.470940 0.120594
0.326740 0.499861 0.127597
0.382046 0.499481 0.127740
0.311498 0.471640 0.170148
0.360988 0.478642 0.169171
0.324184 0.499759 0.178804
0.386648 0.499488 0.179426
0.313905 0.466243 0.218779
0.363498 0.466507 0.217697
0.329463 0.499979 0.229728
0.383859 0.499538 0.229208
0.312196 0.466839 0.267619
0.361532 0.473583 0.266387
0.326484 0.499426 0.281490
0.389816 0.499220 0.281937
0.316786 0.461205 0.316786
0.366337 0.461482 0.314880
0.332409 0.498974 0.332409
0.384562 0.497862 0.330922
0.314880 0.461482 0.366337
0.364127 0.468288 0.364127
0.330922 0.497862 0.384562
0.389722 0.497747 0.389722
0.315110 0.559955 0.023219
0.362637 0.546236 0.022837
0.311658 0.629344 0.023996
0.361226 0.625406 0.023632
0.315171 0.558833 0.073167
0.362426 0.543886 0.072756
0.311439 0.629110 0.073820
0.360985 0.624923 0.073414
0.317060 0.555177 0.122915
0.364498 0.542110 0.122530
0.313296 0.627792 0.123419
0.362966 0.624022 0.122951
0.317013 0.553627 0.172870
0.363904 0.538736 0.172334
0.312675 0.627362 0.173019
0.362312 0.623075 0.172470
0.319755 0.544112 0.222199
0.367921 0.535188 0.221446
0.316677 0.624125 0.222272
0.366411 0.620820 0.221691
0.319398 0.541838 0.271966
0.366611 0.529769 0.270650
0.315681 0.623239 0.271868
0.365361 0.619070 0.271198
0.319972 0.532594 0.319972
0.369306 0.528811 0.319323
0.320597 0.615170 0.320597
0.370505 0.613033 0.320103
0.319323 0.528811 0.369306
0.367838 0.520335 0.367838
0.320103 0.613033 0.370505
0.369940 0.610028 0.369940
0.313656 0.678860 0.023942
0.363308 0.674835 0.023654
0.309189 0.725232 0.023631
0.358552 0.720490 0.022988
0.313528 0.678610 0.073827
0.363165 0.674316 0.073528
0.308916 0.724914 0.073377
0.358228 0.719816 0.072670
0.315247 0.677446 0.123548
0.364982 0.673588 0.123236
0.310561 0.723856 0.122813
0.359990 0.719327 0.122003
0.314858 0.676989 0.173288
0.364575 0.672586 0.172956
0.309744 0.723284 0.172218
0.359084 0.718039 0.171281
0.318313 0.673902 0.222736
0.368130 0.670493 0.222421
0.313732 0.720258 0.221176
0.363276 0.716273 0.220173
0.317754 0.672980 0.272436
0.367536 0.668648 0.272071
0.312145 0.719111 0.270445
0.361567 0.713908 0.269326
0.321480 0.666401 0.321480
0.371412 0.664146 0.321253
0.318845 0.713644 0.318845
0.368647 0.711149 0.317875
0.321253 0.664146 0.371412
0.371123 0.660902 0.371123
0.317875 0.711149 0.368647
0.367603 0.707505 0.367603

CELL_TYPES 384
1
1
1
1
1
1
1
1
1
1
1
1
1
1
1
1
1
1
1
1
1
1
1
1
1
1
1
1
1
1
1
1
1
1
1
1
1
1
1
1
1
1
1
1
1
1
1
1
1
1
1
1
1
1
1
1
1
1
1
1
1
1
1
1
1
1
1
1
1
1
1
1
1
1
1
1
1
1
1
1
1
1
1
1
1
1
1
1
1
1
1
1
1
1
1
1
1
1
1
1
1
1
1
1
1
1
1
1
1
1
1
1
1
1
1
1
1
1
1
1
1
1
1
1
1
1
1
1
1
1
1
1
1
1
1
1
1
1
1
1
1
1
1
1
1
1
1
1
1
1
1
1
1
1
1
1
1
1
1
1
1
1
1
1
1
1
1
1
1
1
1
1
1
1
1
1
1
1
1
1
1
1
1
1
1
1
1
1
1
1
1
1
1
1
1
1
1
1
1
1
1
1
1
1
1
1
1
1
1
1
1
1
1
1
1
1
1
1
1
1
1
1
1
1
1
1
1
1
1
1
1
1
1
1
1
1
1
1
1
1
1
1
1
1
1
1
1
1
1
1
1
1
1
1
1
1
1
1
1
1
1
1
1
1
1
1
1
1
1
1
1
1
1
1
1
1
1
1
1
1
1
1
1
1
1
1
1
1
1
1
1
1
1
1
1
1
1
1
1
1
1
1
1
1
1
1
1
1
1
1
1
1
1
1
1
1
1
1
1
1
1
1
1
1
1
1
1
1
1
1
1
1
1
1
1
1
1
1
1
1
1
1
1
1
1
1
1
1
1
1
1
1
1
1
1
1
1
1
1
1
1
1
1
1
1
1
1
1
1
1
1
1
1
1
1
1
1
1
1
1
1
1
1
1

POINT_DATA 384
SCALARS radius float
LOOKUP_TABLE default
0.5
0.5
0.5
0.5
0.5
0.5
0.5
0.5
0.5
0.5
0.5
0.5
0.5
0.5
0.5
0.5
0.5
0.5
0.5
0.5
0.5
0.5
0.5
0.5
0.5
0.5
0.5
0.5
0.5
0.5
0.5
0.5
0.5
0.5
0.5
0.5
0.5
0.5
0.5
0.5
0.5
0.5
0.5
0.5
0.5
0.5
0.5
0.5
0.5
0.5
0.5
0.5
0.5
0.5
0.5
0.5
0.5
0.5
0.5
0.5
0.5
0.5
0.5
0.5
0.5
0.5
0.5
0.5
0.5
0.5
0.5
0.5
0.5
0.5
0.5
0.5
0.5
0.5
0.5
0.5
0.5
0.5
0.5
0.5
0.5
0.5
0.5
0.5
0.5
0.5
0.5
0.5
0.5
0.5
0.5
0.5
0.5
0.5
0.5
0.5
0.5
0.5
0.5
0.5
0.5
0.5
0.5
0.5
0.5
0.5
0.5
0.5
0.5
0.5
0.5
0.5
0.5
0.5
0.5
0.5
0.5
0.5
0.5
0.5
0.5
0.5
0.5
0.5
0.5
0.5
0.5
0.5
0.5
0.5
0.5
0.5
0.5
0.5
0.5
0.5
0.5
0.5
0.5
0.5
0.5
0.5
0.5
0.5
0.5
0.5
0.5
0.5
0.5
0.5
0.5
0.5
0.5
0.5
0.5
0.5
0.5
0.5
0.5
0.5
0.5
0.5
0.5
0.5
0.5
0.5
0.5
0.5
0.5
0.5
0.5
0.5
0.5
0.5
0.5
0.5
0.5
0.5
0.5
0.5
0.5
0.5
0.5
0.5
0.5
0.5
0.5
0.5
0.5
0.5
0.5
0.5
0.5
0.5
0.5
0.5
0.5
0.5
0.5
0.5
0.5
0.5
0.5
0.5
0.5
0.5
0.5
0.5
0.5
0.5
0.5
0.5
0.5
0.5
0.5
0.5
0.5
0.5
0.5
0.5
0.5
0.5
0.5
0.5
0.5
0.5
0.5
0.5
0.5
0.5
0.5
0.5
0.5
0.5
0.5
0.5
0.5
0.5
0.5
0.5
0.5
0.5
0.5
0.5
0.5
0.5
0.5
0.5
0.5
0.5
0.5
0.5
0.5
0.5
0.5
0.5
0.5
0.5
0.5
0.5
0.5
0.5
0.5
0.5
0.5
0.5
0.5
0.5
0.5
0.5
0.5
0.5
0.5
0.5
0.5
0.5
0.5
0.5
0.5
0.5
0.5
0.5
0.5
0.5
0.5
0.5
0.5
0.5
0.5
0.5
0.5
0.5
0.5
0.5
0.5
0.5
0.5
0.5
0.5
0.5
0.5
0.5
0.5
0.5
0.5
0.5
0.5
0.5
0.5
0.5
0.5
0.5
0.5
0.5
0.5
0.5
0.5
0.5
0.5
0.5
0.5
0.5
0.5
0.5
0.5
0.5
0.5
0.5
0.5
0.5
0.5
0.5
0.5
0.5
0.5
0.5
0.5
0.5
0.5
0.5
0.5
0.5
0.5
0.5
0.5
0.5
0.5
0.5
0.5
0.5
0.5
0.5
0.5
0.5
0.5
0.5
0.5
0.5
0.5
0.5
0.5
0.5
0.5
0.5
0.5
0.5
0.5
0.5
0.5
0.5
0.5
0.5
0.5
0.5
0.5
0.5
0.5
0.5
0.5
0.5
