# vtk DataFile Version 2.0
Title Data
ASCII
DATASET UNSTRUCTURED_GRID
POINTS 360 float
0.332773 0.237055 0.323806
0.411054 0.242564 0.329053
0.277038 0.300021 0.322870
0.347815 0.283575 0.279000
0.329254 0.237910 0.388220
0.394600 0.233366 0.390408
0.274592 0.300008 0.372744
0.361616 0.254424 0.357444
0.322492 0.250582 0.437329
0.388649 0.239081 0.440338
0.290077 0.299591 0.449571
0.354166 0.253870 0.471239
0.317494 0.240121 0.497645
0.386402 0.228146 0.495719
0.291965 0.295599 0.501926
0.354187 0.284488 0.517178
0.343476 0.250651 0.543102
0.383426 0.230624 0.546431
0.270903 0.291678 0.568261
0.367594 0.261498 0.579693
0.330406 0.244111 0.594303
0.395282 0.227152 0.601742
0.298845 0.296331 0.618324
0.355931 0.285357 0.651169
0.309413 0.283435 0.321876
0.389421 0.270189 0.300060
0.353298 0.294207 0.330002
0.399029 0.299887 0.332130
0.303683 0.282822 0.376490
0.365379 0.265698 0.406478
0.348576 0.297448 0.377452
0.399251 0.299903 0.399101
0.333183 0.296239 0.423453
0.375876 0.286336 0.441638
0.344186 0.299899 0.473016
0.400038 0.299948 0.456893
0.303234 0.300004 0.498521
0.385412 0.277233 0.488624
0.341668 0.313228 0.501796
0.395654 0.321414 0.499920
0.318792 0.290115 0.544810
0.387421 0.270579 0.537121
0.357090 0.299962 0.562569
0.399999 0.299704 0.559078
0.315184 0.288510 0.592278
0.385791 0.287895 0.604720
0.347737 0.299707 0.608474
0.400202 0.299857 0.599804
0.323501 0.335382 0.325761
0.370840 0.333480 0.325101
0.303350 0.400765 0.323170
0.359276 0.390377 0.324284
0.322582 0.336250 0.375806
0.370864 0.332489 0.376356
0.303192 0.400857 0.374046
0.359297 0.390184 0.374623
0.326804 0.330743 0.446435
0.376012 0.333994 0.449254
0.300834 0.403474 0.435613
0.355651 0.385388 0.440841
0.324871 0.367260 0.490974
0.375328 0.367275 0.495292
0.300410 0.420992 0.485103
0.350215 0.408212 0.485692
0.320396 0.331450 0.544218
0.373178 0.328906 0.543453
0.309688 0.402260 0.540159
0.352139 0.386940 0.541143
0.322656 0.361392 0.590163
0.371781 0.356573 0.588957
0.310205 0.420295 0.589130
0.353307 0.402675 0.587274
0.299937 0.443126 0.324809
0.352173 0.451075 0.322782
0.299072 0.494466 0.324613
0.357416 0.499707 0.324679
0.299931 0.443567 0.375065
0.352148 0.450981 0.374000
0.298740 0.494639 0.374611
0.357421 0.499684 0.374795
0.298062 0.428236 0.429250
0.351780 0.439167 0.428174
0.296811 0.505174 0.430943
0.352804 0.495707 0.424835
0.298577 0.439468 0.480124
0.353407 0.458710 0.479383
0.298107 0.510269 0.481608
0.352659 0.503713 0.476343
0.297015 0.366484 0.530199
0.348970 0.446175 0.535062
0.293562 0.430234 0.536349
0.350630 0.497891 0.528389
0.290298 0.375778 0.578796
0.350362 0.459622 0.582666
0.295311 0.455257 0.584107
0.351379 0.505066 0.577563
0.298561 0.569081 0.323366
0.357967 0.573162 0.324415
0.311467 0.639106 0.324632
0.367469 0.622165 0.324118
0.298551 0.568720 0.373870
0.358105 0.573450 0.373952
0.311688 0.639279 0.374313
0.367814 0.623133 0.373174
0.299082 0.583578 0.420458
0.352074 0.560283 0.420646
0.299674 0.628912 0.420362
0.360803 0.607681 0.417702
0.298944 0.584556 0.473585
0.354482 0.574917 0.473915
0.304053 0.646781 0.478211
0.363243 0.630189 0.476386
0.298503 0.548659 0.529525
0.352371 0.564853 0.524110
0.309793 0.628670 0.531023
0.367026 0.610893 0.530631
0.298734 0.572463 0.578729
0.354969 0.575429 0.577017
0.312733 0.645720 0.583303
0.368232 0.632696 0.582989
0.433232 0.254163 0.283943
0.491403 0.268277 0.261860
0.457529 0.256880 0.326473
0.503515 0.262130 0.332994
0.436976 0.246313 0.369682
0.479157 0.228725 0.357018
0.444085 0.263115 0.410274
0.498403 0.258984 0.383884
0.438107 0.226302 0.434754
0.492126 0.247944 0.428115
0.461180 0.263324 0.457013
0.523431 0.299669 0.456356
0.463172 0.222298 0.484391
0.504034 0.250717 0.475564
0.450046 0.257507 0.509031
0.500066 0.292997 0.500096
0.418495 0.232001 0.532688
0.499226 0.243399 0.513833
0.455273 0.231195 0.564043
0.502546 0.249293 0.563617
0.441143 0.241039 0.613300
0.485812 0.252637 0.633624
0.452466 0.299845 0.665773
0.519584 0.292006 0.647065
0.403634 0.299474 0.279098
0.450866 0.299434 0.271133
0.434287 0.290809 0.316897
0.489899 0.296785 0.299953
0.398585 0.275815 0.360741
0.480561 0.290946 0.352585
0.438940 0.290976 0.368948
0.474161 0.298320 0.399135
0.406207 0.295009 0.404014
0.502162 0.299869 0.399884
0.430062 0.295817 0.450493
0.492884 0.296065 0.437692
0.420465 0.252747 0.472841
0.480012 0.299012 0.474873
0.428939 0.299633 0.496774
0.470177 0.299732 0.513493
0.399715 0.299855 0.509238
0.477154 0.270938 0.543953
0.426541 0.276118 0.543854
0.493377 0.299299 0.578780
0.405619 0.257037 0.582888
0.449546 0.272090 0.585477
0.427710 0.298010 0.626946
0.478355 0.299242 0.626258
0.416013 0.331426 0.320623
0.461820 0.314711 0.322990
0.399977 0.405843 0.324995
0.454835 0.388519 0.323279
0.412866 0.323750 0.372951
0.461075 0.323723 0.371897
0.399958 0.405754 0.375006
0.454813 0.388420 0.374136
0.418050 0.332897 0.422120
0.453412 0.299671 0.419189
0.398826 0.407670 0.427764
0.451137 0.387741 0.425567
0.415887 0.354597 0.470114
0.456165 0.331165 0.479225
0.399110 0.422177 0.479045
0.454175 0.397840 0.478982
0.418635 0.316515 0.523917
0.454941 0.300770 0.552244
0.399791 0.393066 0.527960
0.453462 0.369497 0.531867
0.417301 0.324872 0.573111
0.455588 0.299822 0.598969
0.399848 0.398516 0.577753
0.454906 0.384253 0.580666
0.399970 0.475585 0.324698
0.456937 0.462346 0.324239
0.410428 0.523090 0.325023
0.467209 0.510283 0.323818
0.399929 0.475493 0.374703
0.457200 0.462658 0.373671
0.410422 0.523073 0.375038
0.467529 0.510578 0.373105
0.399596 0.472327 0.420090
0.449123 0.452986 0.420615
0.398176 0.518480 0.422589
0.460917 0.499707 0.419924
0.399938 0.486287 0.473988
0.453770 0.472347 0.473474
0.402846 0.530057 0.479974
0.462821 0.518455 0.477949
0.398648 0.468338 0.526681
0.450646 0.446305 0.522060
0.408422 0.509397 0.533012
0.464649 0.497765 0.532448
0.399117 0.479548 0.577607
0.453560 0.464318 0.576308
0.411553 0.524929 0.584339
0.467391 0.514705 0.583849
0.414292 0.586354 0.324032
0.470308 0.582882 0.323011
0.422061 0.634157 0.323661
0.477345 0.646080 0.323753
0.414638 0.586742 0.373657
0.470619 0.583260 0.372083
0.421754 0.635404 0.372409
0.477084 0.646871 0.372598
0.403092 0.576913 0.420867
0.465536 0.575848 0.419388
0.426046 0.617174 0.415544
0.481455 0.633001 0.417694
0.409782 0.590103 0.474409
0.468352 0.586524 0.473908
0.426753 0.647448 0.479822
0.482241 0.659614 0.480428
0.412249 0.575606 0.528564
0.469713 0.575997 0.529506
0.423359 0.617843 0.538040
0.478198 0.628516 0.536012
0.414336 0.589720 0.581083
0.470423 0.586801 0.580980
0.425727 0.646075 0.588847
0.480267 0.656127 0.588023
0.491323 0.232307 0.301434
0.588350 0.228223 0.313160
0.539052 0.238054 0.308744
0.624052 0.285080 0.325200
0.508959 0.204916 0.386028
0.590108 0.204350 0.365688
0.554840 0.221397 0.394007
0.615628 0.288016 0.383735
0.499133 0.200574 0.438414
0.585681 0.223409 0.432474
0.536576 0.231199 0.437579
0.625493 0.271186 0.434345
0.508056 0.201744 0.487224
0.584879 0.207675 0.479554
0.545720 0.230372 0.497198
0.622369 0.290950 0.499431
0.500924 0.204396 0.541937
0.587115 0.217065 0.531242
0.545998 0.236320 0.550164
0.624263 0.249490 0.545943
0.498736 0.219243 0.600003
0.569726 0.221648 0.589376
0.565710 0.273870 0.642299
0.609418 0.286330 0.602866
0.533220 0.295707 0.265658
0.575951 0.276276 0.285373
0.531307 0.294270 0.313475
0.578061 0.291456 0.330930
0.542308 0.251090 0.355818
0.592098 0.252788 0.356290
0.522732 0.298485 0.360366
0.566859 0.287895 0.376891
0.531293 0.261234 0.399921
0.589534 0.263548 0.405716
0.546408 0.295044 0.418210
0.588460 0.299786 0.442255
0.550463 0.266965 0.464790
0.596220 0.256010 0.470024
0.534251 0.299808 0.498151
0.577952 0.299708 0.488999
0.542800 0.268850 0.519999
0.590232 0.266653 0.521831
0.519551 0.299731 0.546235
0.569329 0.292738 0.555625
0.537274 0.258725 0.593683
0.596969 0.265502 0.584205
0.512886 0.299847 0.600041
0.562643 0.299711 0.601353
0.501949 0.340591 0.325090
0.556239 0.327286 0.323966
0.507447 0.413628 0.325000
0.564290 0.399755 0.323015
0.504146 0.341904 0.375176
0.555083 0.326356 0.373890
0.507447 0.413630 0.375000
0.564747 0.399553 0.372327
0.499552 0.347446 0.423148
0.557636 0.330309 0.423484
0.497609 0.407257 0.422393
0.556106 0.398533 0.419333
0.499931 0.366659 0.476699
0.553372 0.338251 0.475967
0.498588 0.429419 0.477816
0.559714 0.419805 0.475167
0.498396 0.339593 0.529190
0.554061 0.313116 0.517748
0.504453 0.410356 0.530591
0.561378 0.396603 0.529602
0.498798 0.356755 0.579207
0.551392 0.326154 0.578561
0.507684 0.425552 0.582799
0.565263 0.415243 0.582411
0.510759 0.468809 0.324228
0.568820 0.473797 0.323345
0.525319 0.511978 0.322999
0.580793 0.518483 0.323244
0.511229 0.468934 0.373947
0.569171 0.473791 0.372430
0.524659 0.512542 0.371807
0.580432 0.518601 0.371929
0.499264 0.466936 0.420771
0.564636 0.469560 0.420146
0.528765 0.499724 0.417241
0.584114 0.511779 0.418639
0.509521 0.487593 0.475427
0.568643 0.489031 0.475445
0.527016 0.529377 0.480685
0.582203 0.538419 0.480911
0.508515 0.461548 0.524476
0.567069 0.465902 0.526910
0.527956 0.499745 0.539319
0.581867 0.507492 0.538104
0.513672 0.481708 0.582245
0.570957 0.486242 0.581032
0.525915 0.525368 0.590380
0.580587 0.531932 0.588487
0.522810 0.579389 0.323711
0.577154 0.585089 0.323221
0.525662 0.636611 0.324279
0.580373 0.652660 0.324597
0.522543 0.579842 0.372548
0.576851 0.585122 0.371923
0.525451 0.637760 0.373215
0.580250 0.653058 0.373709
0.525761 0.569346 0.418806
0.579851 0.582323 0.418940
0.528133 0.616134 0.414934
0.583667 0.640029 0.419065
0.525769 0.590182 0.475899
0.578774 0.594726 0.473865
0.531664 0.663002 0.490099
0.584944 0.673495 0.488830
0.524299 0.569072 0.535776
0.578372 0.579005 0.535990
0.523808 0.615561 0.546933
0.579437 0.637800 0.543657
0.525610 0.587688 0.586870
0.578251 0.592429 0.586205
0.528573 0.661586 0.596821
0.582347 0.669576 0.594374

CELL_TYPES 360
1
1
1
1
1
1
1
1
1
1
1
1
1
1
1
1
1
1
1
1
1
1
1
1
1
1
1
1
1
1
1
1
1
1
1
1
1
1
1
1
1
1
1
1
1
1
1
1
1
1
1
1
1
1
1
1
1
1
1
1
1
1
1
1
1
1
1
1
1
1
1
1
1
1
1
1
1
1
1
1
1
1
1
1
1
1
1
1
1
1
1
1
1
1
1
1
1
1
1
1
1
1
1
1
1
1
1
1
1
1
1
1
1
1
1
1
1
1
1
1
1
1
1
1
1
1
1
1
1
1
1
1
1
1
1
1
1
1
1
1
1
1
1
1
1
1
1
1
1
1
1
1
1
1
1
1
1
1
1
1
1
1
1
1
1
1
1
1
1
1
1
1
1
1
1
1
1
1
1
1
1
1
1
1
1
1
1
1
1
1
1
1
1
1
1
1
1
1
1
1
1
1
1
1
1
1
1
1
1
1
1
1
1
1
1
1
1
1
1
1
1
1
1
1
1
1
1
1
1
1
1
1
1
1
1
1
1
1
1
1
1
1
1
1
1
1
1
1
1
1
1
1
1
1
1
1
1
1
1
1
1
1
1
1
1
1
1
1
1
1
1
1
1
1
1
1
1
1
1
1
1
1
1
1
1
1
1
1
1
1
1
1
1
1
1
1
1
1
1
1
1
1
1
1
1
1
1
1
1
1
1
1
1
1
1
1
1
1
1
1
1
1
1
1
1
1
1
1
1
1
1
1
1
1
1
1
1
1
1
1
1
1
1
1
1
1
1
1
1
1
1
1
1
1
1
1
1
1
1
1

POINT_DATA 360
SCALARS radius float
LOOKUP_TABLE default
0.5
0.5
0.5
0.5
0.5
0.5
0.5
0.5
0.5
0.5
0.5
0.5
0.5
0.5
0.5
0.5
0.5
0.5
0.5
0.5
0.5
0.5
0.5
0.5
0.5
0.5
0.5
0.5
0.5
0.5
0.5
0.5
0.5
0.5
0.5
0.5
0.5
0.5
0.5
0.5
0.5
0.5
0.5
0.5
0.5
0.5
0.5
0.5
0.5
0.5
0.5
0.5
0.5
0.5
0.5
0.5
0.5
0.5
0.5
0.5
0.5
0.5
0.5
0.5
0.5
0.5
0.5
0.5
0.5
0.5
0.5
0.5
0.5
0.5
0.5
0.5
0.5
0.5
0.5
0.5
0.5
0.5
0.5
0.5
0.5
0.5
0.5
0.5
0.5
0.5
0.5
0.5
0.5
0.5
0.5
0.5
0.5
0.5
0.5
0.5
0.5
0.5
0.5
0.5
0.5
0.5
0.5
0.5
0.5
0.5
0.5
0.5
0.5
0.5
0.5
0.5
0.5
0.5
0.5
0.5
0.5
0.5
0.5
0.5
0.5
0.5
0.5
0.5
0.5
0.5
0.5
0.5
0.5
0.5
0.5
0.5
0.5
0.5
0.5
0.5
0.5
0.5
0.5
0.5
0.5
0.5
0.5
0.5
0.5
0.5
0.5
0.5
0.5
0.5
0.5
0.5
0.5
0.5
0.5
0.5
0.5
0.5
0.5
0.5
0.5
0.5
0.5
0.5
0.5
0.5
0.5
0.5
0.5
0.5
0.5
0.5
0.5
0.5
0.5
0.5
0.5
0.5
0.5
0.5
0.5
0.5
0.5
0.5
0.5
0.5
0.5
0.5
0.5
0.5
0.5
0.5
0.5
0.5
0.5
0.5
0.5
0.5
0.5
0.5
0.5
0.5
0.5
0.5
0.5
0.5
0.5
0.5
0.5
0.5
0.5
0.5
0.5
0.5
0.5
0.5
0.5
0.5
0.5
0.5
0.5
0.5
0.5
0.5
0.5
0.5
0.5
0.5
0.5
0.5
0.5
0.5
0.5
0.5
0.5
0.5
0.5
0.5
0.5
0.5
0.5
0.5
0.5
0.5
0.5
0.5
0.5
0.5
0.5
0.5
0.5
0.5
0.5
0.5
0.5
0.5
0.5
0.5
0.5
0.5
0.5
0.5
0.5
0.5
0.5
0.5
0.5
0.5
0.5
0.5
0.5
0.5
0.5
0.5
0.5
0.5
0.5
0.5
0.5
0.5
0.5
0.5
0.5
0.5
0.5
0.5
0.5
0.5
0.5
0.5
0.5
0.5
0.5
0.5
0.5
0.5
0.5
0.5
0.5
0.5
0.5
0.5
0.5
0.5
0.5
0.5
0.5
0.5
0.5
0.5
0.5
0.5
0.5
0.5
0.5
0.5
0.5
0.5
0.5
0.5
0.5
0.5
0.5
0.5
0.5
0.5
0.5
0.5
0.5
0.5
0.5
0.5
0.5
0.5
0.5
0.5
0.5
0.5
0.5
0.5
0.5
0.5
0.5
0.5
0.5
0.5
0.5
0.5
0.5
0.5
0.5
0.5
0.5
0.5
0.5
0.5
