# vtk DataFile Version 2.0
Title Data
ASCII
DATASET UNSTRUCTURED_GRID
POINTS 360 float
0.573003 0.099897 0.299575
0.644041 0.015373 0.496816
0.139906 0.100500 0.297614
0.263504 0.007348 0.257912
0.759921 0.100178 0.489420
0.787808 0.179670 0.583698
0.228982 0.084570 0.177425
0.314900 0.000278 0.379023
0.297576 0.099950 0.651601
0.678018 0.099987 0.612409
0.059494 0.000509 0.298289
0.533917 0.099993 0.500650
0.198265 0.099981 0.387802
0.169643 0.063298 0.582837
0.480290 0.051685 0.348292
0.618685 0.014011 0.699488
0.536076 0.071833 0.750684
0.762431 0.054627 0.691946
0.280579 0.099943 0.302647
0.395382 0.023147 0.482560
0.247582 0.010381 0.305667
0.197370 0.047708 0.795516
0.070645 0.048668 0.297868
0.299656 0.051776 0.666233
0.421070 0.051603 0.349921
0.360566 0.107272 0.299697
0.300554 0.006868 0.002507
0.458520 0.050543 0.299752
0.358189 0.101660 0.237438
0.496300 0.098769 0.299717
0.195240 0.010845 0.284320
0.599888 0.101325 0.318824
0.319254 0.099904 0.264538
0.623530 0.038509 0.372287
0.557900 0.033618 0.265891
0.261830 0.097624 0.666877
0.331889 0.099919 0.563604
0.618620 0.099989 0.788323
0.549399 0.064811 0.339564
0.331244 0.059719 0.506882
0.777912 0.156988 0.771106
0.723332 0.163558 0.731207
0.245933 0.099677 0.707689
0.299779 0.099288 0.617267
0.172518 0.051414 0.298607
0.311574 0.099854 0.493885
0.580214 0.049623 0.581832
0.304510 0.011415 0.702182
0.400097 0.099797 0.215331
0.532237 0.099839 0.316879
0.345879 0.099972 0.306701
0.325475 0.098883 0.213961
0.418816 0.021951 0.395292
0.625427 0.067007 0.488540
0.262518 0.056042 0.291473
0.582074 0.099865 0.341627
0.650452 0.116590 0.608050
0.201439 0.073769 0.312559
0.231238 0.099822 0.300006
0.159569 0.099782 0.313221
0.460306 0.099994 0.469582
0.444773 0.053703 0.480989
0.797331 0.124973 0.741604
0.546020 0.018938 0.302044
0.241762 0.099723 0.626716
0.661033 0.021228 0.730715
0.552862 0.020065 0.541219
0.192054 0.014833 0.570543
0.173697 0.099563 0.442087
0.469753 0.099933 0.516947
0.099979 0.099885 0.700549
0.061014 0.099829 0.300335
0.012141 0.099965 0.298542
0.299906 0.093661 0.177973
0.021063 0.047707 0.297927
0.172094 0.055324 0.249769
0.400258 0.099844 0.313291
0.099272 0.099989 0.099940
0.300662 0.099564 0.099127
0.377927 0.048851 0.352751
0.417234 0.099890 0.359126
0.277364 0.099429 0.221916
0.735520 0.103277 0.740612
0.549625 0.099850 0.451472
0.253581 0.099643 0.261420
0.411658 0.099531 0.455325
0.161822 0.103001 0.258410
0.484282 0.007713 0.429576
0.292749 0.025735 0.328443
0.156489 0.016825 0.469095
0.090725 0.050749 0.700696
0.127331 0.040132 0.298811
0.122438 0.074996 0.252110
0.189759 0.096885 0.799762
0.433778 0.099959 0.684900
0.099893 0.099800 0.387507
0.405183 0.065767 0.299265
0.656089 0.099956 0.314272
0.419467 0.021532 0.299983
0.481737 0.099835 0.257922
0.288583 0.047132 0.162928
0.475157 0.099888 0.339041
0.574233 0.099944 0.224361
0.632325 0.062584 0.333655
0.422740 0.099888 0.405730
0.579444 0.042521 0.494351
0.370899 0.099742 0.351705
0.634825 0.016511 0.616913
0.299889 0.099890 0.697905
0.536373 0.099854 0.559459
0.192257 0.100477 0.297590
0.690377 0.154676 0.764096
0.582971 0.099956 0.586207
0.581105 0.098844 0.649075
0.283167 0.004324 0.764317
0.564289 0.099903 0.697579
0.399138 0.099669 0.513181
0.360920 0.099993 0.487135
0.412959 0.099207 0.560073
0.688435 0.193245 0.702201
0.300564 0.099921 0.057887
0.300404 0.000348 0.077280
0.719370 0.051164 0.522033
0.450163 0.098605 0.297966
0.720240 0.141015 0.690988
0.791062 0.055839 0.651058
0.657363 0.094641 0.280252
0.562988 0.046263 0.402960
0.695120 0.027645 0.173230
0.769226 0.018933 0.630319
0.665363 0.033651 0.574773
0.675133 0.099998 0.468137
0.690728 0.059821 0.671872
0.661154 0.028395 0.684227
0.523351 0.098324 0.610986
0.752479 0.073603 0.650024
0.730938 0.198414 0.594709
0.655850 0.082152 0.651888
0.773432 0.126845 0.693189
0.366229 0.053654 0.682260
0.692485 0.003825 0.662112
0.196515 0.099714 0.754374
0.394686 0.014164 0.647938
0.268803 0.099972 0.576710
0.300627 0.099765 0.013840
0.311140 0.031856 0.285423
0.720039 0.100091 0.297802
0.681236 0.099889 0.255414
0.690294 0.009964 0.429417
0.701366 0.100005 0.625854
0.651862 0.099172 0.388800
0.678533 0.109179 0.233655
0.685271 0.017608 0.530537
0.434459 0.069574 0.263216
0.650477 0.049620 0.529855
0.765916 0.043844 0.527668
0.690921 0.139091 0.639926
0.259252 0.099889 0.388642
0.259916 0.013853 0.581150
0.656579 0.069933 0.751791
0.373238 0.094220 0.643850
0.771187 0.013076 0.676853
0.708412 0.100271 0.700283
0.677466 0.013359 0.783008
0.308170 0.099955 0.720649
0.215310 0.054590 0.399255
0.196929 0.099724 0.555583
0.553952 0.041690 0.634863
0.270959 0.068263 0.343289
0.411547 0.113361 0.299377
0.527519 0.097426 0.231518
0.716032 0.002807 0.499207
0.688858 0.001329 0.299609
0.704020 0.080430 0.255784
0.579848 0.093747 0.520816
0.783361 0.100241 0.284463
0.689393 0.100169 0.541907
0.629404 0.062425 0.685727
0.669580 0.053735 0.415895
0.633194 0.111155 0.499496
0.378398 0.099234 0.399595
0.636432 0.101292 0.565535
0.646996 0.023605 0.447228
0.699749 0.081145 0.636719
0.299598 0.000398 0.655472
0.749640 0.073112 0.798366
0.436380 0.052521 0.548941
0.534222 0.007581 0.695472
0.761347 0.149612 0.725122
0.351165 0.099828 0.690586
0.102151 0.082284 0.299413
0.267048 0.052661 0.770188
0.199120 0.099176 0.232884
0.583009 0.051795 0.299967
0.385551 0.099945 0.279027
0.759423 0.167126 0.262744
0.487031 0.099888 0.397020
0.607639 0.020022 0.302021
0.656167 0.071571 0.193600
0.684538 0.046978 0.470746
0.535006 0.099945 0.274780
0.609851 0.099995 0.400207
0.633157 0.099991 0.443737
0.658511 0.126165 0.663974
0.563443 0.099955 0.402230
0.634326 0.069510 0.611530
0.519613 0.077618 0.656549
0.695514 0.109153 0.785059
0.207469 0.057295 0.577853
0.660961 0.093443 0.699880
0.671797 0.175252 0.661891
0.747153 0.216218 0.671500
0.251902 0.099917 0.752855
0.281079 0.099964 0.788286
0.285670 0.056528 0.721813
0.796900 0.069427 0.698338
0.742772 0.045275 0.373630
0.363728 0.033085 0.252737
0.745488 0.104880 0.314707
0.399989 0.055695 0.243599
0.645779 0.098704 0.539641
0.377318 0.040120 0.299864
0.651220 0.042200 0.300292
0.799901 0.096335 0.514267
0.611215 0.087128 0.299965
0.691547 0.193725 0.298921
0.399376 0.099973 0.260514
0.631257 0.099973 0.247609
0.594023 0.121025 0.605833
0.671504 0.079005 0.585147
0.424175 0.016367 0.251670
0.671298 0.078500 0.502485
0.691806 0.120368 0.734390
0.678165 0.206852 0.697761
0.699916 0.202819 0.762752
0.699804 0.131176 0.493615
0.706916 0.190113 0.692726
0.769476 0.223790 0.594383
0.340850 0.099947 0.779943
0.699129 0.181327 0.497383
0.667307 0.150607 0.298680
0.761902 0.002287 0.390521
0.745756 0.099972 0.255664
0.522394 0.057618 0.298244
0.751817 0.110091 0.577508
0.691823 0.037066 0.296303
0.699785 0.108056 0.300880
0.700165 0.058891 0.300094
0.798072 0.003392 0.547679
0.737071 0.084814 0.607927
0.762076 0.130564 0.450647
0.697127 0.040780 0.239666
0.780139 0.057598 0.751726
0.703236 0.115170 0.586186
0.705572 0.100074 0.659959
0.751553 0.008597 0.583722
0.713133 0.076920 0.740375
0.763252 0.200045 0.625248
0.791061 0.024452 0.716856
0.700003 0.100029 0.700077
0.399785 0.002920 0.759791
0.728553 0.042918 0.770315
0.756138 0.112892 0.774744
0.745275 0.047363 0.726498
0.751986 0.077698 0.299759
0.783886 0.096084 0.383941
0.793732 0.082213 0.562082
0.740801 0.097243 0.363471
0.724717 0.096766 0.457043
0.723812 0.096649 0.405913
0.358287 0.071937 0.273865
0.640055 0.102685 0.299995
0.783787 0.048816 0.346476
0.692803 0.053471 0.375209
0.796942 0.035356 0.586079
0.731169 0.042576 0.632320
0.748762 0.158475 0.563314
0.737068 0.055259 0.477826
0.752192 0.002537 0.736696
0.712471 0.036611 0.586121
0.735223 0.160956 0.782913
0.716487 0.079384 0.565263
0.348977 0.069203 0.730821
0.762572 0.171146 0.680506
0.773167 0.031180 0.794757
0.768774 0.099831 0.714368
0.731232 0.079138 0.696769
0.799053 0.100991 0.662228
0.597993 0.099884 0.262459
0.737019 0.141439 0.342932
0.300774 0.050340 0.078004
0.780237 0.093877 0.333077
0.742503 0.010583 0.456457
0.739746 0.010073 0.302123
0.699049 0.053361 0.064882
0.699952 0.094559 0.300166
0.675755 0.154096 0.591025
0.672963 0.043141 0.626713
0.686308 0.195391 0.568153
0.796799 0.177949 0.731312
0.733462 0.125016 0.620738
0.715753 0.095044 0.503551
0.671830 0.199882 0.618869
0.762815 0.199250 0.537904
0.651876 0.102163 0.719553
0.797314 0.112041 0.790276
0.498536 0.082512 0.698973
0.702115 0.161213 0.601849
0.751246 0.104043 0.669706
0.728156 0.031692 0.681497
0.797185 0.201221 0.686625
0.790031 0.029673 0.419454
0.722768 0.099748 0.212910
0.711182 0.077830 0.337181
0.299740 0.098255 0.115853
0.796660 0.069400 0.459803
0.657817 0.055403 0.262561
0.445269 0.099838 0.228272
0.663366 0.015010 0.387820
0.765701 0.088696 0.427454
0.678315 0.145281 0.698624
0.721334 0.138239 0.252278
0.697951 0.099728 0.166536
0.678310 0.025840 0.339007
0.716912 0.189011 0.528820
0.776660 0.096428 0.613397
0.778574 0.030430 0.484638
0.782065 0.130637 0.541867
0.753583 0.199945 0.724712
0.786906 0.132628 0.597910
0.699452 0.129806 0.350795
0.756705 0.057377 0.580065
0.750446 0.162374 0.611249
0.704545 0.368136 0.560040
0.731848 0.150963 0.654473
0.738554 0.133913 0.521773
0.300851 0.050007 0.027783
0.698828 0.099582 0.097671
0.611110 0.053614 0.269303
0.760566 0.040869 0.277004
0.619068 0.142370 0.297338
0.779529 0.070720 0.245427
0.677983 0.099980 0.421464
0.262233 0.099574 0.145343
0.717470 0.146123 0.299950
0.720531 0.052896 0.296344
0.671494 0.063024 0.148405
0.299882 0.013019 0.198597
0.694499 0.100226 0.270751
0.754160 0.090101 0.534243
0.674062 0.099008 0.351354
0.734472 0.051297 0.421650
0.710986 0.190222 0.643468
0.770957 0.142198 0.299630
0.782303 0.182344 0.427702
0.706299 0.211580 0.599643
0.774670 0.137755 0.644625
0.702607 0.128179 0.432562
0.749837 0.154076 0.395213
0.744553 0.187512 0.462478

CELL_TYPES 360
1
1
1
1
1
1
1
1
1
1
1
1
1
1
1
1
1
1
1
1
1
1
1
1
1
1
1
1
1
1
1
1
1
1
1
1
1
1
1
1
1
1
1
1
1
1
1
1
1
1
1
1
1
1
1
1
1
1
1
1
1
1
1
1
1
1
1
1
1
1
1
1
1
1
1
1
1
1
1
1
1
1
1
1
1
1
1
1
1
1
1
1
1
1
1
1
1
1
1
1
1
1
1
1
1
1
1
1
1
1
1
1
1
1
1
1
1
1
1
1
1
1
1
1
1
1
1
1
1
1
1
1
1
1
1
1
1
1
1
1
1
1
1
1
1
1
1
1
1
1
1
1
1
1
1
1
1
1
1
1
1
1
1
1
1
1
1
1
1
1
1
1
1
1
1
1
1
1
1
1
1
1
1
1
1
1
1
1
1
1
1
1
1
1
1
1
1
1
1
1
1
1
1
1
1
1
1
1
1
1
1
1
1
1
1
1
1
1
1
1
1
1
1
1
1
1
1
1
1
1
1
1
1
1
1
1
1
1
1
1
1
1
1
1
1
1
1
1
1
1
1
1
1
1
1
1
1
1
1
1
1
1
1
1
1
1
1
1
1
1
1
1
1
1
1
1
1
1
1
1
1
1
1
1
1
1
1
1
1
1
1
1
1
1
1
1
1
1
1
1
1
1
1
1
1
1
1
1
1
1
1
1
1
1
1
1
1
1
1
1
1
1
1
1
1
1
1
1
1
1
1
1
1
1
1
1
1
1
1
1
1
1
1
1
1
1
1
1
1
1
1
1
1
1
1
1
1
1
1
1

POINT_DATA 360
SCALARS radius float
LOOKUP_TABLE default
0.5
0.5
0.5
0.5
0.5
0.5
0.5
0.5
0.5
0.5
0.5
0.5
0.5
0.5
0.5
0.5
0.5
0.5
0.5
0.5
0.5
0.5
0.5
0.5
0.5
0.5
0.5
0.5
0.5
0.5
0.5
0.5
0.5
0.5
0.5
0.5
0.5
0.5
0.5
0.5
0.5
0.5
0.5
0.5
0.5
0.5
0.5
0.5
0.5
0.5
0.5
0.5
0.5
0.5
0.5
0.5
0.5
0.5
0.5
0.5
0.5
0.5
0.5
0.5
0.5
0.5
0.5
0.5
0.5
0.5
0.5
0.5
0.5
0.5
0.5
0.5
0.5
0.5
0.5
0.5
0.5
0.5
0.5
0.5
0.5
0.5
0.5
0.5
0.5
0.5
0.5
0.5
0.5
0.5
0.5
0.5
0.5
0.5
0.5
0.5
0.5
0.5
0.5
0.5
0.5
0.5
0.5
0.5
0.5
0.5
0.5
0.5
0.5
0.5
0.5
0.5
0.5
0.5
0.5
0.5
0.5
0.5
0.5
0.5
0.5
0.5
0.5
0.5
0.5
0.5
0.5
0.5
0.5
0.5
0.5
0.5
0.5
0.5
0.5
0.5
0.5
0.5
0.5
0.5
0.5
0.5
0.5
0.5
0.5
0.5
0.5
0.5
0.5
0.5
0.5
0.5
0.5
0.5
0.5
0.5
0.5
0.5
0.5
0.5
0.5
0.5
0.5
0.5
0.5
0.5
0.5
0.5
0.5
0.5
0.5
0.5
0.5
0.5
0.5
0.5
0.5
0.5
0.5
0.5
0.5
0.5
0.5
0.5
0.5
0.5
0.5
0.5
0.5
0.5
0.5
0.5
0.5
0.5
0.5
0.5
0.5
0.5
0.5
0.5
0.5
0.5
0.5
0.5
0.5
0.5
0.5
0.5
0.5
0.5
0.5
0.5
0.5
0.5
0.5
0.5
0.5
0.5
0.5
0.5
0.5
0.5
0.5
0.5
0.5
0.5
0.5
0.5
0.5
0.5
0.5
0.5
0.5
0.5
0.5
0.5
0.5
0.5
0.5
0.5
0.5
0.5
0.5
0.5
0.5
0.5
0.5
0.5
0.5
0.5
0.5
0.5
0.5
0.5
0.5
0.5
0.5
0.5
0.5
0.5
0.5
0.5
0.5
0.5
0.5
0.5
0.5
0.5
0.5
0.5
0.5
0.5
0.5
0.5
0.5
0.5
0.5
0.5
0.5
0.5
0.5
0.5
0.5
0.5
0.5
0.5
0.5
0.5
0.5
0.5
0.5
0.5
0.5
0.5
0.5
0.5
0.5
0.5
0.5
0.5
0.5
0.5
0.5
0.5
0.5
0.5
0.5
0.5
0.5
0.5
0.5
0.5
0.5
0.5
0.5
0.5
0.5
0.5
0.5
0.5
0.5
0.5
0.5
0.5
0.5
0.5
0.5
0.5
0.5
0.5
0.5
0.5
0.5
0.5
0.5
0.5
0.5
0.5
0.5
0.5
0.5
0.5
0.5
0.5
0.5
0.5
0.5
0.5
0.5
0.5
0.5
0.5
0.5
0.5
0.5
0.5
