# vtk DataFile Version 2.0
Title Data
ASCII
DATASET UNSTRUCTURED_GRID
POINTS 360 float
0.481915 0.081289 0.331118
0.542281 0.034028 0.421668
0.084226 0.099952 0.350559
0.299867 0.056764 0.123501
0.661348 0.110363 0.376402
0.576841 0.176018 0.408510
0.253504 0.099817 0.196630
0.388876 0.045546 0.387000
0.438486 0.076478 0.511540
0.522555 0.038662 0.458502
0.106683 0.060292 0.474495
0.297921 0.012157 0.515981
0.324926 0.033042 0.578967
0.417904 0.090675 0.552696
0.177360 0.098582 0.499824
0.501806 0.074020 0.504884
0.543253 0.088632 0.590747
0.567519 0.001478 0.611454
0.039500 0.098818 0.399665
0.297437 0.054307 0.641584
0.187451 0.051640 0.478644
0.299683 0.027478 0.756943
0.094161 0.097619 0.399506
0.471809 0.099850 0.788931
0.299999 0.004154 0.289990
0.482361 0.019351 0.299496
0.298016 0.045988 0.055998
0.299850 0.053096 0.302422
0.299879 0.001398 0.199859
0.299775 0.004643 0.350951
0.280327 0.031997 0.158610
0.419048 0.032004 0.496338
0.299354 0.052533 0.346391
0.500953 0.009434 0.422606
0.355035 0.057810 0.508594
0.474457 0.041350 0.508829
0.408654 0.071811 0.617605
0.523051 0.088779 0.545970
0.265060 0.099818 0.517459
0.480671 0.100173 0.511175
0.554652 0.099898 0.547531
0.581887 0.047084 0.603071
0.373286 0.076478 0.656370
0.322913 0.039593 0.670723
0.297076 0.007886 0.665130
0.391094 0.089717 0.734845
0.299870 0.056343 0.717947
0.434492 0.102130 0.688947
0.240181 0.090287 0.152838
0.260646 0.029702 0.304311
0.295850 0.099958 0.299592
0.297746 0.098744 0.049456
0.292622 0.096345 0.418272
0.448703 0.058216 0.471371
0.280432 0.060255 0.191868
0.405439 0.091450 0.398415
0.393675 0.051919 0.539473
0.299746 0.047999 0.392498
0.265079 0.012537 0.451164
0.191503 0.099772 0.445249
0.286357 0.024160 0.562403
0.221022 0.099527 0.538503
0.521409 0.007013 0.496284
0.249637 0.055922 0.487069
0.402427 0.023240 0.627298
0.561876 0.056563 0.559622
0.257685 0.053897 0.590153
0.389346 0.042457 0.595972
0.266775 0.099701 0.732066
0.298306 0.099979 0.656863
0.299631 0.099723 0.702712
0.217496 0.099937 0.698565
0.259453 0.099629 0.272224
0.299598 0.099789 0.107550
0.206487 0.099715 0.184114
0.299877 0.099919 0.205339
0.222179 0.099750 0.288183
0.099272 0.099989 0.099940
0.320044 0.099926 0.309946
0.227346 0.093249 0.240991
0.262835 0.093113 0.326789
0.299597 0.099893 0.386077
0.495064 0.078143 0.478372
0.322902 0.099727 0.505681
0.099920 0.099259 0.300586
0.285334 0.099755 0.482676
0.243923 0.025459 0.521292
0.297175 0.060920 0.522880
0.282649 0.041116 0.266149
0.271020 0.047896 0.682600
0.248729 0.099301 0.788921
0.227857 0.062944 0.667267
0.130168 0.099695 0.499233
0.284924 0.010312 0.711040
0.299839 0.078424 0.762003
0.250984 0.099854 0.639554
0.300109 0.099895 0.338834
0.403220 0.079357 0.476783
0.300070 0.099694 0.359992
0.461580 0.156883 0.354644
0.277569 0.099970 0.138723
0.299861 0.099957 0.453102
0.446951 0.199535 0.368190
0.498264 0.164157 0.390301
0.313880 0.050660 0.453867
0.368777 0.099930 0.527813
0.258031 0.099970 0.399186
0.438434 0.158001 0.470059
0.450515 0.054181 0.550558
0.263476 0.099793 0.562190
0.217357 0.099871 0.489545
0.402380 0.191279 0.469833
0.299545 0.072724 0.590220
0.404246 0.148601 0.499367
0.420509 0.155780 0.543081
0.452505 0.244503 0.499691
0.228102 0.099752 0.590694
0.277494 0.099825 0.605110
0.316723 0.099887 0.617426
0.435492 0.188287 0.581575
0.298092 0.015112 0.095162
0.430416 0.054173 0.087888
0.580389 0.081847 0.337213
0.505101 0.053787 0.377161
0.599999 0.099947 0.436638
0.654717 0.049218 0.386682
0.693140 0.099997 0.400938
0.360830 0.062993 0.450813
0.707000 0.100271 0.347728
0.600070 0.112436 0.370565
0.597580 0.099964 0.475965
0.510199 0.096082 0.423797
0.624176 0.101891 0.500077
0.567277 0.009659 0.477151
0.345956 0.097933 0.570027
0.536015 0.052118 0.494676
0.648586 0.000316 0.513566
0.572257 0.098232 0.534654
0.648314 0.099984 0.690088
0.468622 0.022057 0.658235
0.604242 0.022245 0.764910
0.447261 0.023384 0.772706
0.430491 0.068410 0.753408
0.545430 0.099878 0.734237
0.299039 0.099277 0.090511
0.299085 0.098256 0.165902
0.700879 0.000907 0.342975
0.699803 0.099587 0.179849
0.547861 0.107396 0.400566
0.662739 0.010197 0.361080
0.564400 0.079355 0.427240
0.601203 0.159096 0.367635
0.630584 0.088501 0.352718
0.670978 0.082718 0.261822
0.446749 0.009860 0.530219
0.579159 0.042846 0.450180
0.568357 0.029974 0.517434
0.273460 0.060047 0.450455
0.432721 0.028215 0.586117
0.521601 0.040563 0.536331
0.454738 0.079259 0.589365
0.610471 0.091994 0.622366
0.610406 0.005171 0.559517
0.527510 0.103237 0.677261
0.539142 0.006590 0.682770
0.258351 0.051000 0.772315
0.422231 0.027392 0.719369
0.587634 0.099763 0.749516
0.299358 0.087430 0.271867
0.299363 0.043610 0.230563
0.435080 0.099475 0.292825
0.561981 0.140804 0.366735
0.483682 0.059427 0.440539
0.578633 0.199812 0.366000
0.417958 0.119775 0.447257
0.541356 0.101999 0.350484
0.583199 0.132203 0.409687
0.474180 0.099975 0.482541
0.497319 0.106279 0.420033
0.474387 0.156496 0.442785
0.238160 0.099821 0.449445
0.518223 0.100118 0.466419
0.403352 0.101018 0.506788
0.509614 0.123058 0.506847
0.472830 0.099986 0.626046
0.540870 0.094532 0.634289
0.365579 0.095773 0.610545
0.491583 0.119679 0.585531
0.523276 0.157282 0.631026
0.458573 0.069170 0.665175
0.221970 0.099358 0.746396
0.427419 0.116577 0.634723
0.289861 0.099771 0.238063
0.424679 0.164474 0.422434
0.374085 0.088559 0.193929
0.640927 0.197776 0.352138
0.332250 0.099782 0.422316
0.451489 0.121898 0.418957
0.601840 0.199996 0.324345
0.645632 0.119995 0.333418
0.356689 0.099828 0.473333
0.469041 0.114687 0.461303
0.442164 0.210806 0.427719
0.479138 0.199476 0.458056
0.302460 0.099995 0.550792
0.481604 0.161076 0.500253
0.388895 0.189680 0.523083
0.447195 0.196154 0.494982
0.404215 0.100540 0.591592
0.446509 0.124637 0.500148
0.512402 0.184263 0.532996
0.588137 0.169101 0.594996
0.260171 0.099769 0.684100
0.464595 0.127191 0.544655
0.454645 0.157887 0.618910
0.584007 0.181957 0.639419
0.661276 0.099852 0.221631
0.550135 0.099557 0.097858
0.593383 0.099251 0.231302
0.410331 0.099850 0.136689
0.541427 0.182794 0.378823
0.700263 0.079553 0.138357
0.586637 0.129217 0.327449
0.616330 0.120298 0.281414
0.493222 0.198469 0.349705
0.626768 0.150533 0.309904
0.484979 0.115955 0.355058
0.565814 0.171554 0.325664
0.497673 0.229204 0.489272
0.519493 0.226962 0.403970
0.386412 0.099551 0.293397
0.531885 0.264338 0.327189
0.459824 0.188125 0.538763
0.552065 0.183475 0.559657
0.482317 0.223819 0.581259
0.521283 0.274927 0.411179
0.507016 0.188851 0.585573
0.596366 0.200662 0.559989
0.464230 0.193588 0.663428
0.568585 0.225630 0.410429
0.537721 0.064480 0.301012
0.700205 0.100052 0.300299
0.699223 0.036410 0.377219
0.412393 0.053710 0.198901
0.736986 0.063047 0.380548
0.745255 0.008274 0.363417
0.657742 0.060576 0.339546
0.733710 0.100780 0.310227
0.677836 0.069934 0.414389
0.642416 0.099964 0.400918
0.642475 0.005921 0.409961
0.752958 0.099976 0.359380
0.542186 0.097407 0.500403
0.657451 0.099937 0.447127
0.621292 0.035978 0.497462
0.666881 0.032916 0.482330
0.646730 0.079284 0.584691
0.668087 0.039854 0.561344
0.624724 0.042037 0.586443
0.700601 0.099146 0.598529
0.578629 0.054568 0.752901
0.671596 0.011527 0.636252
0.702599 0.021963 0.672994
0.656744 0.083309 0.631038
0.736781 0.043076 0.299929
0.717687 0.042759 0.210741
0.576603 0.000557 0.416849
0.679790 0.098292 0.318937
0.599898 0.051363 0.390272
0.718327 0.076562 0.313758
0.477573 0.099356 0.197364
0.570287 0.033712 0.350007
0.688555 0.044610 0.320398
0.726390 0.042635 0.340653
0.625742 0.066486 0.425740
0.636549 0.069647 0.470851
0.631689 0.027479 0.449872
0.678446 0.031894 0.438041
0.581442 0.064600 0.496508
0.600365 0.086686 0.500771
0.609534 0.051280 0.540927
0.683917 0.060302 0.520475
0.517207 0.053772 0.612075
0.595256 0.090184 0.592559
0.567642 0.038865 0.652160
0.698402 0.098583 0.647112
0.576654 0.086400 0.667761
0.675609 0.061426 0.670775
0.549376 0.070723 0.375479
0.667648 0.114927 0.298002
0.733546 0.126409 0.160273
0.773117 0.043709 0.201993
0.608511 0.099929 0.309496
0.691557 0.068139 0.195739
0.761196 0.088740 0.098501
0.779447 0.096243 0.269379
0.535862 0.144625 0.421674
0.553959 0.079237 0.463702
0.557585 0.173798 0.453257
0.600388 0.099475 0.400156
0.557146 0.106423 0.499953
0.564518 0.126869 0.456030
0.529256 0.198323 0.488965
0.620914 0.129844 0.463202
0.529198 0.137393 0.548739
0.644562 0.080774 0.529463
0.520015 0.146889 0.465750
0.592345 0.136494 0.500415
0.566837 0.134521 0.670165
0.580567 0.124902 0.620602
0.569589 0.126274 0.574305
0.749207 0.085352 0.425107
0.740767 0.099860 0.279679
0.744264 0.080081 0.182268
0.599860 0.099832 0.066821
0.786137 0.050794 0.300212
0.759871 0.099940 0.313813
0.700067 0.100083 0.295002
0.719048 0.072657 0.265434
0.770650 0.053964 0.340378
0.523102 0.189399 0.428970
0.619053 0.191507 0.395753
0.699678 0.184512 0.267958
0.707694 0.099955 0.393442
0.587550 0.182264 0.481574
0.695705 0.071361 0.462093
0.669092 0.097292 0.492405
0.720636 0.045069 0.422658
0.547271 0.153794 0.502783
0.706271 0.049646 0.500019
0.626336 0.141195 0.418432
0.709292 0.099629 0.501091
0.612717 0.099874 0.551824
0.797790 0.400081 0.560040
0.661184 0.113741 0.599869
0.673933 0.176173 0.489847
0.445232 0.099009 0.057165
0.780893 0.127826 0.136631
0.600207 0.134242 0.197280
0.599747 0.162004 0.273976
0.684465 0.154887 0.330637
0.790575 0.099973 0.193378
0.534658 0.208058 0.341898
0.703616 0.183526 0.136792
0.645491 0.152615 0.367245
0.796321 0.096606 0.342258
0.708956 0.162267 0.186851
0.791730 0.099585 0.110041
0.656454 0.189029 0.309467
0.694925 0.079444 0.359558
0.649687 0.181249 0.278187
0.657440 0.155107 0.190907
0.585848 0.174206 0.526065
0.674774 0.129754 0.419585
0.597333 0.200190 0.439733
0.626872 0.173653 0.499980
0.679005 0.099943 0.554413
0.705049 0.099901 0.432971
0.595950 0.249063 0.464252
0.661493 0.173354 0.415390

CELL_TYPES 360
1
1
1
1
1
1
1
1
1
1
1
1
1
1
1
1
1
1
1
1
1
1
1
1
1
1
1
1
1
1
1
1
1
1
1
1
1
1
1
1
1
1
1
1
1
1
1
1
1
1
1
1
1
1
1
1
1
1
1
1
1
1
1
1
1
1
1
1
1
1
1
1
1
1
1
1
1
1
1
1
1
1
1
1
1
1
1
1
1
1
1
1
1
1
1
1
1
1
1
1
1
1
1
1
1
1
1
1
1
1
1
1
1
1
1
1
1
1
1
1
1
1
1
1
1
1
1
1
1
1
1
1
1
1
1
1
1
1
1
1
1
1
1
1
1
1
1
1
1
1
1
1
1
1
1
1
1
1
1
1
1
1
1
1
1
1
1
1
1
1
1
1
1
1
1
1
1
1
1
1
1
1
1
1
1
1
1
1
1
1
1
1
1
1
1
1
1
1
1
1
1
1
1
1
1
1
1
1
1
1
1
1
1
1
1
1
1
1
1
1
1
1
1
1
1
1
1
1
1
1
1
1
1
1
1
1
1
1
1
1
1
1
1
1
1
1
1
1
1
1
1
1
1
1
1
1
1
1
1
1
1
1
1
1
1
1
1
1
1
1
1
1
1
1
1
1
1
1
1
1
1
1
1
1
1
1
1
1
1
1
1
1
1
1
1
1
1
1
1
1
1
1
1
1
1
1
1
1
1
1
1
1
1
1
1
1
1
1
1
1
1
1
1
1
1
1
1
1
1
1
1
1
1
1
1
1
1
1
1
1
1
1
1
1
1
1
1
1
1
1
1
1
1
1
1
1
1
1
1
1

POINT_DATA 360
SCALARS radius float
LOOKUP_TABLE default
0.5
0.5
0.5
0.5
0.5
0.5
0.5
0.5
0.5
0.5
0.5
0.5
0.5
0.5
0.5
0.5
0.5
0.5
0.5
0.5
0.5
0.5
0.5
0.5
0.5
0.5
0.5
0.5
0.5
0.5
0.5
0.5
0.5
0.5
0.5
0.5
0.5
0.5
0.5
0.5
0.5
0.5
0.5
0.5
0.5
0.5
0.5
0.5
0.5
0.5
0.5
0.5
0.5
0.5
0.5
0.5
0.5
0.5
0.5
0.5
0.5
0.5
0.5
0.5
0.5
0.5
0.5
0.5
0.5
0.5
0.5
0.5
0.5
0.5
0.5
0.5
0.5
0.5
0.5
0.5
0.5
0.5
0.5
0.5
0.5
0.5
0.5
0.5
0.5
0.5
0.5
0.5
0.5
0.5
0.5
0.5
0.5
0.5
0.5
0.5
0.5
0.5
0.5
0.5
0.5
0.5
0.5
0.5
0.5
0.5
0.5
0.5
0.5
0.5
0.5
0.5
0.5
0.5
0.5
0.5
0.5
0.5
0.5
0.5
0.5
0.5
0.5
0.5
0.5
0.5
0.5
0.5
0.5
0.5
0.5
0.5
0.5
0.5
0.5
0.5
0.5
0.5
0.5
0.5
0.5
0.5
0.5
0.5
0.5
0.5
0.5
0.5
0.5
0.5
0.5
0.5
0.5
0.5
0.5
0.5
0.5
0.5
0.5
0.5
0.5
0.5
0.5
0.5
0.5
0.5
0.5
0.5
0.5
0.5
0.5
0.5
0.5
0.5
0.5
0.5
0.5
0.5
0.5
0.5
0.5
0.5
0.5
0.5
0.5
0.5
0.5
0.5
0.5
0.5
0.5
0.5
0.5
0.5
0.5
0.5
0.5
0.5
0.5
0.5
0.5
0.5
0.5
0.5
0.5
0.5
0.5
0.5
0.5
0.5
0.5
0.5
0.5
0.5
0.5
0.5
0.5
0.5
0.5
0.5
0.5
0.5
0.5
0.5
0.5
0.5
0.5
0.5
0.5
0.5
0.5
0.5
0.5
0.5
0.5
0.5
0.5
0.5
0.5
0.5
0.5
0.5
0.5
0.5
0.5
0.5
0.5
0.5
0.5
0.5
0.5
0.5
0.5
0.5
0.5
0.5
0.5
0.5
0.5
0.5
0.5
0.5
0.5
0.5
0.5
0.5
0.5
0.5
0.5
0.5
0.5
0.5
0.5
0.5
0.5
0.5
0.5
0.5
0.5
0.5
0.5
0.5
0.5
0.5
0.5
0.5
0.5
0.5
0.5
0.5
0.5
0.5
0.5
0.5
0.5
0.5
0.5
0.5
0.5
0.5
0.5
0.5
0.5
0.5
0.5
0.5
0.5
0.5
0.5
0.5
0.5
0.5
0.5
0.5
0.5
0.5
0.5
0.5
0.5
0.5
0.5
0.5
0.5
0.5
0.5
0.5
0.5
0.5
0.5
0.5
0.5
0.5
0.5
0.5
0.5
0.5
0.5
0.5
0.5
0.5
0.5
0.5
0.5
0.5
0.5
0.5
0.5
0.5
0.5
0.5
0.5
0.5
0.5
0.5
0.5
0.5
