# vtk DataFile Version 2.0
Title Data
ASCII
DATASET UNSTRUCTURED_GRID
POINTS 360 float
0.325401 0.313002 0.325000
0.375344 0.313097 0.325000
0.320685 0.358720 0.325000
0.372261 0.358686 0.325000
0.325401 0.313002 0.375000
0.375344 0.313097 0.375000
0.320685 0.358720 0.375000
0.372261 0.358686 0.375000
0.325445 0.313418 0.430237
0.375385 0.313517 0.430226
0.320004 0.359235 0.431779
0.371728 0.359180 0.431926
0.325417 0.313616 0.479318
0.375356 0.313752 0.479311
0.320201 0.359395 0.480616
0.371886 0.359437 0.480713
0.325404 0.312949 0.528288
0.375347 0.313033 0.528284
0.320681 0.358680 0.529300
0.372264 0.358627 0.529357
0.325394 0.313055 0.577671
0.375339 0.313159 0.577668
0.320726 0.358779 0.578498
0.372265 0.358758 0.578534
0.331372 0.399968 0.325000
0.378984 0.399819 0.325000
0.330002 0.443649 0.325000
0.378596 0.444900 0.325000
0.331372 0.399968 0.375000
0.378984 0.399819 0.375000
0.330002 0.443649 0.375000
0.378596 0.444900 0.375000
0.332895 0.399887 0.427984
0.380115 0.399909 0.427930
0.331218 0.443676 0.429648
0.379544 0.445209 0.429534
0.332899 0.399963 0.477468
0.380408 0.399976 0.477514
0.331035 0.444613 0.478930
0.379414 0.446076 0.478845
0.331268 0.399872 0.526845
0.378895 0.399963 0.526868
0.330026 0.443402 0.528119
0.378610 0.444668 0.528057
0.331425 0.399900 0.576540
0.379024 0.399975 0.576611
0.329960 0.443896 0.577595
0.378572 0.445121 0.577548
0.324782 0.496753 0.325000
0.374354 0.496844 0.325000
0.322522 0.549025 0.325000
0.373305 0.548748 0.325000
0.324782 0.496753 0.375000
0.374354 0.496844 0.375000
0.322522 0.549025 0.375000
0.373305 0.548748 0.375000
0.324949 0.496670 0.427901
0.374366 0.496902 0.427913
0.322326 0.548674 0.428234
0.373069 0.548398 0.428274
0.324786 0.497054 0.477470
0.374256 0.497365 0.477480
0.322402 0.549176 0.477787
0.373110 0.548913 0.477820
0.324833 0.496704 0.526987
0.374389 0.496742 0.526987
0.322516 0.548935 0.527271
0.373305 0.548656 0.527295
0.324744 0.496842 0.576675
0.374333 0.496961 0.576673
0.322553 0.549186 0.576924
0.373323 0.548915 0.576943
0.323163 0.599186 0.325000
0.373928 0.599015 0.325000
0.322931 0.648064 0.325000
0.373749 0.647821 0.325000
0.323163 0.599186 0.375000
0.373928 0.599015 0.375000
0.322931 0.648064 0.375000
0.373749 0.647821 0.375000
0.322819 0.599030 0.427258
0.373777 0.598949 0.427277
0.322535 0.647943 0.427726
0.373570 0.647681 0.427762
0.322874 0.599280 0.476959
0.373811 0.599185 0.476970
0.322578 0.648488 0.477325
0.373600 0.648235 0.477353
0.323156 0.599181 0.526602
0.373923 0.599013 0.526615
0.322922 0.647978 0.526912
0.373742 0.647729 0.526934
0.323186 0.599270 0.576377
0.373942 0.599100 0.576386
0.322938 0.648255 0.576616
0.373755 0.648016 0.576632
0.324091 0.698877 0.325000
0.374535 0.698844 0.325000
0.324113 0.754384 0.325000
0.374542 0.754213 0.325000
0.324091 0.698877 0.375000
0.374535 0.698844 0.375000
0.324113 0.754384 0.375000
0.374542 0.754213 0.375000
0.324040 0.698789 0.428800
0.374507 0.698705 0.428796
0.324146 0.754099 0.430142
0.374559 0.753914 0.430183
0.324100 0.699028 0.478244
0.374537 0.698966 0.478241
0.324156 0.754907 0.479104
0.374565 0.754739 0.479135
0.324062 0.698875 0.527549
0.374523 0.698809 0.527553
0.324100 0.754154 0.528105
0.374536 0.753977 0.528126
0.324086 0.698938 0.577127
0.374537 0.698890 0.577133
0.324105 0.754590 0.577497
0.374538 0.754422 0.577513
0.428933 0.317116 0.325000
0.477848 0.317174 0.325000
0.435883 0.361416 0.325000
0.483690 0.361510 0.325000
0.428933 0.317116 0.375000
0.477848 0.317174 0.375000
0.435883 0.361416 0.375000
0.483690 0.361510 0.375000
0.429910 0.318821 0.428858
0.478628 0.318868 0.428794
0.438386 0.362861 0.432019
0.485906 0.363100 0.431789
0.429772 0.318604 0.478271
0.478525 0.318664 0.478222
0.438009 0.362766 0.481035
0.485592 0.362888 0.480873
0.428958 0.317173 0.527582
0.477865 0.317224 0.527552
0.435858 0.361491 0.529834
0.483676 0.361576 0.529719
0.428913 0.317125 0.577152
0.477836 0.317174 0.577131
0.435766 0.361474 0.579079
0.483614 0.361531 0.578995
0.423201 0.399831 0.325000
0.471034 0.399957 0.325000
0.426449 0.439775 0.325000
0.475369 0.440151 0.325000
0.423201 0.399831 0.374999
0.471034 0.399957 0.375000
0.426449 0.439775 0.375000
0.475369 0.440151 0.375000
0.422392 0.399622 0.424884
0.469974 0.399742 0.425335
0.426967 0.438885 0.428670
0.475640 0.439481 0.428702
0.422079 0.399914 0.474843
0.469937 0.399835 0.475229
0.426885 0.439668 0.478155
0.475567 0.440210 0.478182
0.423274 0.399707 0.524795
0.471096 0.399759 0.525122
0.426446 0.439553 0.527583
0.475371 0.439921 0.527603
0.423152 0.399886 0.574794
0.470993 0.399788 0.575077
0.426448 0.439954 0.577187
0.475368 0.440319 0.577204
0.423670 0.495848 0.325000
0.473795 0.495686 0.325000
0.423334 0.548823 0.325000
0.473748 0.548644 0.325000
0.423670 0.495848 0.375000
0.473795 0.495686 0.375000
0.423334 0.548823 0.375000
0.473748 0.548644 0.375000
0.423501 0.495503 0.427169
0.473645 0.495223 0.427196
0.423071 0.548430 0.427722
0.473570 0.548211 0.427758
0.423452 0.495719 0.476889
0.473671 0.495545 0.476910
0.423109 0.548905 0.477321
0.473598 0.548692 0.477349
0.423690 0.495715 0.526573
0.473793 0.495592 0.526588
0.423322 0.548741 0.526909
0.473742 0.548563 0.526931
0.423669 0.495912 0.576359
0.473807 0.495760 0.576371
0.423339 0.549009 0.576613
0.473753 0.548825 0.576630
0.424178 0.599228 0.325000
0.474524 0.599192 0.325000
0.424134 0.648754 0.325000
0.474440 0.648774 0.325000
0.424178 0.599228 0.375000
0.474524 0.599192 0.375000
0.424134 0.648754 0.375000
0.474440 0.648774 0.375000
0.424058 0.599067 0.428653
0.474472 0.599017 0.428654
0.424126 0.648576 0.430132
0.474446 0.648580 0.430178
0.424123 0.599210 0.478137
0.474509 0.599125 0.478137
0.424132 0.649535 0.479087
0.474453 0.649562 0.479122
0.424157 0.599157 0.527525
0.474512 0.599126 0.527528
0.424122 0.648635 0.528086
0.474431 0.648624 0.528110
0.424177 0.599281 0.577119
0.474523 0.599217 0.577123
0.424124 0.649148 0.577477
0.474435 0.649149 0.577495
0.427135 0.699049 0.325000
0.476959 0.699243 0.325000
0.427833 0.756408 0.325000
0.477427 0.756722 0.325000
0.427135 0.699049 0.375000
0.476959 0.699243 0.375000
0.427833 0.756408 0.375000
0.477427 0.756722 0.375000
0.427559 0.698995 0.430936
0.477361 0.699091 0.430860
0.428484 0.756260 0.432439
0.477971 0.756651 0.432293
0.427623 0.699401 0.479937
0.477384 0.699502 0.479885
0.428309 0.757316 0.480839
0.477835 0.757655 0.480741
0.427112 0.699059 0.528676
0.476955 0.699098 0.528631
0.427862 0.756173 0.529352
0.477446 0.756496 0.529290
0.427133 0.699347 0.578033
0.476963 0.699398 0.578000
0.427791 0.756744 0.578467
0.477393 0.757045 0.578424
0.525817 0.309265 0.325000
0.575273 0.309578 0.325000
0.529773 0.355785 0.325000
0.578128 0.356012 0.325000
0.525817 0.309265 0.375000
0.575273 0.309578 0.375000
0.529773 0.355785 0.375000
0.578128 0.356012 0.375000
0.526028 0.308981 0.427724
0.575411 0.309425 0.427776
0.530909 0.355593 0.428805
0.578969 0.355906 0.429133
0.526034 0.309117 0.477358
0.575426 0.309533 0.477402
0.530793 0.355721 0.478304
0.578912 0.355998 0.478588
0.525815 0.309259 0.526932
0.575268 0.309556 0.526966
0.529741 0.355796 0.527715
0.578109 0.355966 0.527935
0.525824 0.309314 0.576645
0.575282 0.309622 0.576674
0.529739 0.355830 0.577312
0.578116 0.356052 0.577495
0.520782 0.399128 0.325000
0.572737 0.399382 0.325000
0.524665 0.441010 0.325000
0.574322 0.441011 0.325000
0.520782 0.399128 0.375000
0.572737 0.399382 0.375000
0.524665 0.441010 0.375000
0.574322 0.441011 0.375000
0.519882 0.398839 0.426173
0.572223 0.399098 0.426080
0.524709 0.440564 0.428023
0.574266 0.440547 0.428091
0.520032 0.399038 0.476011
0.572260 0.399266 0.475931
0.524678 0.441104 0.477581
0.574262 0.441071 0.477637
0.520778 0.399123 0.525831
0.572738 0.399243 0.525770
0.524663 0.440871 0.527126
0.574317 0.440789 0.527168
0.520782 0.399164 0.575722
0.572751 0.399413 0.575669
0.524661 0.441141 0.576796
0.574321 0.441141 0.576831
0.523895 0.496441 0.325000
0.574353 0.496373 0.325000
0.524070 0.550339 0.325000
0.574388 0.550354 0.325000
0.523895 0.496441 0.375000
0.574353 0.496373 0.375000
0.524070 0.550339 0.375000
0.574388 0.550354 0.375000
0.523688 0.496275 0.428211
0.574265 0.496073 0.428225
0.524051 0.550157 0.430110
0.574387 0.550189 0.430158
0.523775 0.496629 0.477785
0.574306 0.496538 0.477793
0.524055 0.550949 0.479068
0.574392 0.550969 0.479104
0.523864 0.496327 0.527298
0.574339 0.496256 0.527304
0.524059 0.550127 0.528071
0.574382 0.550137 0.528097
0.523890 0.496628 0.576958
0.574360 0.496450 0.576963
0.524060 0.550539 0.577465
0.574384 0.550559 0.577484
0.527104 0.599698 0.325000
0.576961 0.599757 0.325000
0.527851 0.649935 0.325000
0.577440 0.650306 0.325000
0.527104 0.599698 0.375000
0.576961 0.599757 0.375000
0.527851 0.649935 0.375000
0.577440 0.650306 0.375000
0.527516 0.599576 0.430914
0.577345 0.599683 0.430837
0.528502 0.649788 0.432455
0.577983 0.650265 0.432310
0.527635 0.599841 0.479931
0.577422 0.599823 0.479904
0.528328 0.651188 0.480841
0.577847 0.651643 0.480743
0.527072 0.599579 0.528661
0.576939 0.599632 0.528603
0.527880 0.649586 0.529341
0.577459 0.649953 0.529278
0.527138 0.599735 0.578030
0.576980 0.599798 0.577995
0.527810 0.650281 0.578453
0.577407 0.650652 0.578411
0.527350 0.699581 0.325000
0.577103 0.699659 0.325000
0.527765 0.756800 0.325000
0.577429 0.757148 0.325000
0.527350 0.699581 0.375000
0.577103 0.699659 0.375000
0.527765 0.756800 0.375000
0.577429 0.757148 0.375000
0.527930 0.699554 0.432795
0.577627 0.699719 0.432687
0.528486 0.756681 0.434311
0.578053 0.757129 0.434108
0.527831 0.699909 0.481572
0.577537 0.700226 0.481481
0.528290 0.758038 0.482290
0.577899 0.758411 0.482151
0.527342 0.699552 0.529513
0.577098 0.699618 0.529470
0.527774 0.756427 0.530334
0.577434 0.756788 0.530248
0.527314 0.699689 0.578823
0.577074 0.699772 0.578784
0.527709 0.757155 0.579259
0.577387 0.757486 0.579199

CELL_TYPES 360
1
1
1
1
1
1
1
1
1
1
1
1
1
1
1
1
1
1
1
1
1
1
1
1
1
1
1
1
1
1
1
1
1
1
1
1
1
1
1
1
1
1
1
1
1
1
1
1
1
1
1
1
1
1
1
1
1
1
1
1
1
1
1
1
1
1
1
1
1
1
1
1
1
1
1
1
1
1
1
1
1
1
1
1
1
1
1
1
1
1
1
1
1
1
1
1
1
1
1
1
1
1
1
1
1
1
1
1
1
1
1
1
1
1
1
1
1
1
1
1
1
1
1
1
1
1
1
1
1
1
1
1
1
1
1
1
1
1
1
1
1
1
1
1
1
1
1
1
1
1
1
1
1
1
1
1
1
1
1
1
1
1
1
1
1
1
1
1
1
1
1
1
1
1
1
1
1
1
1
1
1
1
1
1
1
1
1
1
1
1
1
1
1
1
1
1
1
1
1
1
1
1
1
1
1
1
1
1
1
1
1
1
1
1
1
1
1
1
1
1
1
1
1
1
1
1
1
1
1
1
1
1
1
1
1
1
1
1
1
1
1
1
1
1
1
1
1
1
1
1
1
1
1
1
1
1
1
1
1
1
1
1
1
1
1
1
1
1
1
1
1
1
1
1
1
1
1
1
1
1
1
1
1
1
1
1
1
1
1
1
1
1
1
1
1
1
1
1
1
1
1
1
1
1
1
1
1
1
1
1
1
1
1
1
1
1
1
1
1
1
1
1
1
1
1
1
1
1
1
1
1
1
1
1
1
1
1
1
1
1
1
1
1
1
1
1
1
1
1
1
1
1
1
1
1
1
1
1
1
1

POINT_DATA 360
SCALARS radius float
LOOKUP_TABLE default
0.5
0.5
0.5
0.5
0.5
0.5
0.5
0.5
0.5
0.5
0.5
0.5
0.5
0.5
0.5
0.5
0.5
0.5
0.5
0.5
0.5
0.5
0.5
0.5
0.5
0.5
0.5
0.5
0.5
0.5
0.5
0.5
0.5
0.5
0.5
0.5
0.5
0.5
0.5
0.5
0.5
0.5
0.5
0.5
0.5
0.5
0.5
0.5
0.5
0.5
0.5
0.5
0.5
0.5
0.5
0.5
0.5
0.5
0.5
0.5
0.5
0.5
0.5
0.5
0.5
0.5
0.5
0.5
0.5
0.5
0.5
0.5
0.5
0.5
0.5
0.5
0.5
0.5
0.5
0.5
0.5
0.5
0.5
0.5
0.5
0.5
0.5
0.5
0.5
0.5
0.5
0.5
0.5
0.5
0.5
0.5
0.5
0.5
0.5
0.5
0.5
0.5
0.5
0.5
0.5
0.5
0.5
0.5
0.5
0.5
0.5
0.5
0.5
0.5
0.5
0.5
0.5
0.5
0.5
0.5
0.5
0.5
0.5
0.5
0.5
0.5
0.5
0.5
0.5
0.5
0.5
0.5
0.5
0.5
0.5
0.5
0.5
0.5
0.5
0.5
0.5
0.5
0.5
0.5
0.5
0.5
0.5
0.5
0.5
0.5
0.5
0.5
0.5
0.5
0.5
0.5
0.5
0.5
0.5
0.5
0.5
0.5
0.5
0.5
0.5
0.5
0.5
0.5
0.5
0.5
0.5
0.5
0.5
0.5
0.5
0.5
0.5
0.5
0.5
0.5
0.5
0.5
0.5
0.5
0.5
0.5
0.5
0.5
0.5
0.5
0.5
0.5
0.5
0.5
0.5
0.5
0.5
0.5
0.5
0.5
0.5
0.5
0.5
0.5
0.5
0.5
0.5
0.5
0.5
0.5
0.5
0.5
0.5
0.5
0.5
0.5
0.5
0.5
0.5
0.5
0.5
0.5
0.5
0.5
0.5
0.5
0.5
0.5
0.5
0.5
0.5
0.5
0.5
0.5
0.5
0.5
0.5
0.5
0.5
0.5
0.5
0.5
0.5
0.5
0.5
0.5
0.5
0.5
0.5
0.5
0.5
0.5
0.5
0.5
0.5
0.5
0.5
0.5
0.5
0.5
0.5
0.5
0.5
0.5
0.5
0.5
0.5
0.5
0.5
0.5
0.5
0.5
0.5
0.5
0.5
0.5
0.5
0.5
0.5
0.5
0.5
0.5
0.5
0.5
0.5
0.5
0.5
0.5
0.5
0.5
0.5
0.5
0.5
0.5
0.5
0.5
0.5
0.5
0.5
0.5
0.5
0.5
0.5
0.5
0.5
0.5
0.5
0.5
0.5
0.5
0.5
0.5
0.5
0.5
0.5
0.5
0.5
0.5
0.5
0.5
0.5
0.5
0.5
0.5
0.5
0.5
0.5
0.5
0.5
0.5
0.5
0.5
0.5
0.5
0.5
0.5
0.5
0.5
0.5
0.5
0.5
0.5
0.5
0.5
0.5
0.5
0.5
0.5
0.5
0.5
0.5
0.5
0.5
0.5
0.5
0.5
0.5
0.5
0.5
0.5
