# vtk DataFile Version 2.0
Title Data
ASCII
DATASET UNSTRUCTURED_GRID
POINTS 384 float
0.024907 0.523317 0.024907
0.074811 0.523317 0.024906
0.024912 0.571739 0.024912
0.074821 0.571737 0.024912
0.024906 0.523317 0.074811
0.074810 0.523317 0.074810
0.024912 0.571737 0.074821
0.074821 0.571736 0.074821
0.024915 0.523152 0.124574
0.074828 0.523152 0.124574
0.024921 0.571420 0.124592
0.074838 0.571418 0.124592
0.024915 0.523150 0.174399
0.074828 0.523149 0.174399
0.024921 0.571411 0.174431
0.074838 0.571409 0.174431
0.024934 0.522763 0.224029
0.074866 0.522762 0.224028
0.024939 0.570666 0.224077
0.074875 0.570664 0.224077
0.024933 0.522762 0.273742
0.074864 0.522761 0.273742
0.024939 0.570652 0.273820
0.074874 0.570650 0.273819
0.024963 0.521990 0.323118
0.074925 0.521989 0.323117
0.024967 0.569163 0.323211
0.074932 0.569162 0.323210
0.024962 0.521963 0.373567
0.074924 0.521962 0.373567
0.024967 0.569085 0.373665
0.074931 0.569083 0.373665
0.024835 0.618044 0.024835
0.074670 0.618037 0.024835
0.024836 0.667558 0.024836
0.074667 0.667552 0.024836
0.024835 0.618037 0.074670
0.074669 0.618030 0.074669
0.024836 0.667552 0.074667
0.074667 0.667547 0.074667
0.024851 0.617359 0.124262
0.074701 0.617352 0.124261
0.024852 0.666830 0.124244
0.074699 0.666824 0.124242
0.024850 0.617325 0.173964
0.074699 0.617318 0.173963
0.024851 0.666798 0.173943
0.074697 0.666792 0.173942
0.024884 0.615736 0.223326
0.074768 0.615728 0.223324
0.024885 0.665141 0.223275
0.074766 0.665133 0.223273
0.024881 0.615662 0.272870
0.074763 0.615654 0.272867
0.024883 0.665073 0.272805
0.074761 0.665065 0.272803
0.024935 0.612483 0.321795
0.074871 0.612476 0.321793
0.024936 0.661984 0.321656
0.074870 0.661978 0.321654
0.024933 0.612242 0.372576
0.074867 0.612235 0.372575
0.024934 0.661738 0.372489
0.074866 0.661731 0.372487
0.024800 0.716772 0.024800
0.074597 0.716764 0.024800
0.024794 0.770035 0.024794
0.074580 0.770030 0.024793
0.024800 0.716764 0.074597
0.074596 0.716757 0.074596
0.024793 0.770030 0.074580
0.074579 0.770026 0.074579
0.024820 0.716005 0.124096
0.074637 0.715997 0.124094
0.024814 0.769578 0.124048
0.074620 0.769573 0.124046
0.024818 0.715965 0.173732
0.074634 0.715957 0.173730
0.024812 0.769553 0.173662
0.074617 0.769547 0.173660
0.024860 0.714290 0.222953
0.074720 0.714281 0.222950
0.024855 0.768586 0.222828
0.074705 0.768581 0.222825
0.024857 0.714201 0.272391
0.074713 0.714192 0.272388
0.024851 0.768525 0.272210
0.074697 0.768519 0.272207
0.024924 0.711411 0.321118
0.074848 0.711404 0.321115
0.024921 0.767112 0.320819
0.074838 0.767108 0.320814
0.024921 0.711137 0.372053
0.074842 0.711129 0.372050
0.024917 0.766930 0.371819
0.074832 0.766925 0.371816
0.124574 0.523152 0.024915
0.174399 0.523150 0.024915
0.124592 0.571420 0.024921
0.174431 0.571411 0.024921
0.124574 0.523152 0.074828
0.174399 0.523149 0.074828
0.124592 0.571418 0.074838
0.174431 0.571409 0.074838
0.124615 0.523003 0.124615
0.174455 0.523000 0.124613
0.124632 0.571131 0.124632
0.174486 0.571121 0.124630
0.124613 0.523000 0.174455
0.174453 0.522997 0.174453
0.124630 0.571121 0.174486
0.174484 0.571110 0.174484
0.124699 0.522647 0.224118
0.174573 0.522643 0.224115
0.124715 0.570440 0.224164
0.174601 0.570429 0.224162
0.124695 0.522644 0.273854
0.174569 0.522640 0.273851
0.124712 0.570423 0.273927
0.174597 0.570412 0.273925
0.124831 0.521925 0.323281
0.174761 0.521922 0.323277
0.124843 0.569035 0.323367
0.174780 0.569026 0.323364
0.124828 0.521900 0.373689
0.174757 0.521896 0.373687
0.124841 0.568962 0.373780
0.174777 0.568952 0.373778
0.124262 0.617359 0.024851
0.173964 0.617325 0.024850
0.124244 0.666830 0.024852
0.173943 0.666798 0.024851
0.124261 0.617352 0.074701
0.173963 0.617318 0.074699
0.124242 0.666824 0.074699
0.173942 0.666792 0.074697
0.124334 0.616736 0.124334
0.174064 0.616701 0.124329
0.124317 0.666168 0.124317
0.174044 0.666133 0.124311
0.124329 0.616701 0.174064
0.174058 0.616664 0.174058
0.124311 0.666133 0.174044
0.174038 0.666098 0.174038
0.124484 0.615244 0.223487
0.174271 0.615207 0.223478
0.124468 0.664617 0.223439
0.174255 0.664580 0.223430
0.124473 0.615167 0.273068
0.174258 0.615128 0.273059
0.124457 0.664544 0.273009
0.174241 0.664506 0.272999
0.124716 0.612199 0.322093
0.174597 0.612169 0.322082
0.124705 0.661681 0.321963
0.174586 0.661651 0.321951
0.124707 0.611972 0.372799
0.174585 0.611940 0.372792
0.124696 0.661447 0.372718
0.174574 0.661415 0.372710
0.124096 0.716005 0.024820
0.173732 0.715965 0.024818
0.124048 0.769578 0.024814
0.173662 0.769553 0.024812
0.124094 0.715997 0.074637
0.173730 0.715957 0.074634
0.124046 0.769573 0.074620
0.173660 0.769547 0.074617
0.124186 0.715311 0.124186
0.173857 0.715269 0.124179
0.124140 0.769165 0.124140
0.173791 0.769137 0.124132
0.124179 0.715269 0.173857
0.173849 0.715225 0.173849
0.124132 0.769137 0.173791
0.173781 0.769109 0.173781
0.124373 0.713747 0.223154
0.174117 0.713704 0.223141
0.124333 0.768263 0.223035
0.174060 0.768235 0.223021
0.124358 0.713654 0.272639
0.174097 0.713608 0.272625
0.124315 0.768198 0.272470
0.174037 0.768169 0.272455
0.124659 0.711103 0.321482
0.174518 0.711070 0.321466
0.124633 0.766928 0.321201
0.174482 0.766907 0.321182
0.124647 0.710843 0.372325
0.174501 0.710808 0.372315
0.124618 0.766756 0.372109
0.174462 0.766733 0.372096
0.224029 0.522763 0.024934
0.273742 0.522762 0.024933
0.224077 0.570666 0.024939
0.273820 0.570652 0.024939
0.224028 0.522762 0.074866
0.273742 0.522761 0.074864
0.224077 0.570664 0.074875
0.273819 0.570650 0.074874
0.224118 0.522647 0.124699
0.273854 0.522644 0.124695
0.224164 0.570440 0.124715
0.273927 0.570423 0.124712
0.224115 0.522643 0.174573
0.273851 0.522640 0.174569
0.224162 0.570429 0.174601
0.273925 0.570412 0.174597
0.224307 0.522363 0.224307
0.274094 0.522358 0.224300
0.224347 0.569886 0.224347
0.274156 0.569866 0.224342
0.224300 0.522358 0.274094
0.274087 0.522352 0.274087
0.224342 0.569866 0.274156
0.274150 0.569845 0.274150
0.224608 0.521761 0.323633
0.274483 0.521755 0.323624
0.224636 0.568710 0.323705
0.274524 0.568691 0.323698
0.224603 0.521739 0.373955
0.274477 0.521732 0.373949
0.224633 0.568647 0.374028
0.274520 0.568626 0.374024
0.223326 0.615736 0.024884
0.272870 0.615662 0.024881
0.223275 0.665141 0.024885
0.272805 0.665073 0.024883
0.223324 0.615728 0.074768
0.272867 0.615654 0.074763
0.223273 0.665133 0.074766
0.272803 0.665065 0.074761
0.223487 0.615244 0.124484
0.273068 0.615167 0.124473
0.223439 0.664617 0.124468
0.273009 0.664544 0.124457
0.223478 0.615207 0.174271
0.273059 0.615128 0.174258
0.223430 0.664580 0.174255
0.272999 0.664506 0.174241
0.223822 0.614037 0.223822
0.273488 0.613958 0.223804
0.223782 0.663368 0.223782
0.273438 0.663290 0.223762
0.223804 0.613958 0.273488
0.273468 0.613876 0.273468
0.223762 0.663290 0.273438
0.273417 0.663208 0.273417
0.224346 0.611478 0.322723
0.274155 0.611413 0.322700
0.224320 0.660941 0.322614
0.274124 0.660875 0.322588
0.224331 0.611283 0.373272
0.274137 0.611213 0.373256
0.224304 0.660738 0.373204
0.274104 0.660667 0.373187
0.222953 0.714290 0.024860
0.272391 0.714201 0.024857
0.222828 0.768586 0.024855
0.272210 0.768525 0.024851
0.222950 0.714281 0.074720
0.272388 0.714192 0.074713
0.222825 0.768581 0.074705
0.272207 0.768519 0.074697
0.223154 0.713747 0.124373
0.272639 0.713654 0.124358
0.223035 0.768263 0.124333
0.272470 0.768198 0.124315
0.223141 0.713704 0.174117
0.272625 0.713608 0.174097
0.223021 0.768235 0.174060
0.272455 0.768169 0.174037
0.223570 0.712507 0.223570
0.273158 0.712412 0.223543
0.223469 0.767553 0.223469
0.273019 0.767487 0.223437
0.223543 0.712412 0.273158
0.273129 0.712312 0.273129
0.223437 0.767487 0.273019
0.272985 0.767418 0.272985
0.224213 0.710387 0.322248
0.273978 0.710314 0.322213
0.224149 0.766524 0.322012
0.273894 0.766475 0.321970
0.224192 0.710164 0.372902
0.273952 0.710085 0.372879
0.224123 0.766375 0.372725
0.273863 0.766322 0.372697
0.323118 0.521990 0.024963
0.373567 0.521963 0.024962
0.323211 0.569163 0.024967
0.373665 0.569085 0.024967
0.323117 0.521989 0.074925
0.373567 0.521962 0.074924
0.323210 0.569162 0.074932
0.373665 0.569083 0.074931
0.323281 0.521925 0.124831
0.373689 0.521900 0.124828
0.323367 0.569035 0.124843
0.373780 0.568962 0.124841
0.323277 0.521922 0.174761
0.373687 0.521896 0.174757
0.323364 0.569026 0.174780
0.373778 0.568952 0.174777
0.323633 0.521761 0.224608
0.373955 0.521739 0.224603
0.323705 0.568710 0.224636
0.374028 0.568647 0.224633
0.323624 0.521755 0.274483
0.373949 0.521732 0.274477
0.323698 0.568691 0.274524
0.374024 0.568626 0.274520
0.324212 0.521386 0.324212
0.374396 0.521370 0.324205
0.324258 0.567966 0.324258
0.374441 0.567923 0.324253
0.324205 0.521370 0.374396
0.374391 0.521354 0.374391
0.324253 0.567923 0.374441
0.374437 0.567879 0.374437
0.321795 0.612483 0.024935
0.372576 0.612242 0.024933
0.321656 0.661984 0.024936
0.372489 0.661738 0.024934
0.321793 0.612476 0.074871
0.372575 0.612235 0.074867
0.321654 0.661978 0.074870
0.372487 0.661731 0.074866
0.322093 0.612199 0.124716
0.372799 0.611972 0.124707
0.321963 0.661681 0.124705
0.372718 0.661447 0.124696
0.322082 0.612169 0.174597
0.372792 0.611940 0.174585
0.321951 0.661651 0.174586
0.372710 0.661415 0.174574
0.322723 0.611478 0.224346
0.373272 0.611283 0.224331
0.322614 0.660941 0.224320
0.373204 0.660738 0.224304
0.322700 0.611413 0.274155
0.373256 0.611213 0.274137
0.322588 0.660875 0.274124
0.373187 0.660667 0.274104
0.323724 0.609832 0.323724
0.374029 0.609701 0.323707
0.323653 0.659453 0.323653
0.373986 0.659318 0.323634
0.323707 0.609701 0.374029
0.374016 0.609566 0.374016
0.323634 0.659318 0.373986
0.373971 0.659177 0.373971
0.321118 0.711411 0.024924
0.372053 0.711137 0.024921
0.320819 0.767112 0.024921
0.371819 0.766930 0.024917
0.321115 0.711404 0.074848
0.372050 0.711129 0.074842
0.320814 0.767108 0.074838
0.371816 0.766925 0.074832
0.321482 0.711103 0.124659
0.372325 0.710843 0.124647
0.321201 0.766928 0.124633
0.372109 0.766756 0.124618
0.321466 0.711070 0.174518
0.372315 0.710808 0.174501
0.321182 0.766907 0.174482
0.372096 0.766733 0.174462
0.322248 0.710387 0.224213
0.372902 0.710164 0.224192
0.322012 0.766524 0.224149
0.372725 0.766375 0.224123
0.322213 0.710314 0.273978
0.372879 0.710085 0.273952
0.321970 0.766475 0.273894
0.372697 0.766322 0.273863
0.323457 0.709156 0.323457
0.373822 0.709013 0.323432
0.323309 0.765976 0.323309
0.373716 0.765882 0.323277
0.323432 0.709013 0.373822
0.373803 0.708864 0.373803
0.323277 0.765882 0.373716
0.373692 0.765783 0.373692

CELL_TYPES 384
1
1
1
1
1
1
1
1
1
1
1
1
1
1
1
1
1
1
1
1
1
1
1
1
1
1
1
1
1
1
1
1
1
1
1
1
1
1
1
1
1
1
1
1
1
1
1
1
1
1
1
1
1
1
1
1
1
1
1
1
1
1
1
1
1
1
1
1
1
1
1
1
1
1
1
1
1
1
1
1
1
1
1
1
1
1
1
1
1
1
1
1
1
1
1
1
1
1
1
1
1
1
1
1
1
1
1
1
1
1
1
1
1
1
1
1
1
1
1
1
1
1
1
1
1
1
1
1
1
1
1
1
1
1
1
1
1
1
1
1
1
1
1
1
1
1
1
1
1
1
1
1
1
1
1
1
1
1
1
1
1
1
1
1
1
1
1
1
1
1
1
1
1
1
1
1
1
1
1
1
1
1
1
1
1
1
1
1
1
1
1
1
1
1
1
1
1
1
1
1
1
1
1
1
1
1
1
1
1
1
1
1
1
1
1
1
1
1
1
1
1
1
1
1
1
1
1
1
1
1
1
1
1
1
1
1
1
1
1
1
1
1
1
1
1
1
1
1
1
1
1
1
1
1
1
1
1
1
1
1
1
1
1
1
1
1
1
1
1
1
1
1
1
1
1
1
1
1
1
1
1
1
1
1
1
1
1
1
1
1
1
1
1
1
1
1
1
1
1
1
1
1
1
1
1
1
1
1
1
1
1
1
1
1
1
1
1
1
1
1
1
1
1
1
1
1
1
1
1
1
1
1
1
1
1
1
1
1
1
1
1
1
1
1
1
1
1
1
1
1
1
1
1
1
1
1
1
1
1
1
1
1
1
1
1
1
1
1
1
1
1
1
1
1
1
1
1
1
1
1
1
1
1
1

POINT_DATA 384
SCALARS radius float
LOOKUP_TABLE default
0.5
0.5
0.5
0.5
0.5
0.5
0.5
0.5
0.5
0.5
0.5
0.5
0.5
0.5
0.5
0.5
0.5
0.5
0.5
0.5
0.5
0.5
0.5
0.5
0.5
0.5
0.5
0.5
0.5
0.5
0.5
0.5
0.5
0.5
0.5
0.5
0.5
0.5
0.5
0.5
0.5
0.5
0.5
0.5
0.5
0.5
0.5
0.5
0.5
0.5
0.5
0.5
0.5
0.5
0.5
0.5
0.5
0.5
0.5
0.5
0.5
0.5
0.5
0.5
0.5
0.5
0.5
0.5
0.5
0.5
0.5
0.5
0.5
0.5
0.5
0.5
0.5
0.5
0.5
0.5
0.5
0.5
0.5
0.5
0.5
0.5
0.5
0.5
0.5
0.5
0.5
0.5
0.5
0.5
0.5
0.5
0.5
0.5
0.5
0.5
0.5
0.5
0.5
0.5
0.5
0.5
0.5
0.5
0.5
0.5
0.5
0.5
0.5
0.5
0.5
0.5
0.5
0.5
0.5
0.5
0.5
0.5
0.5
0.5
0.5
0.5
0.5
0.5
0.5
0.5
0.5
0.5
0.5
0.5
0.5
0.5
0.5
0.5
0.5
0.5
0.5
0.5
0.5
0.5
0.5
0.5
0.5
0.5
0.5
0.5
0.5
0.5
0.5
0.5
0.5
0.5
0.5
0.5
0.5
0.5
0.5
0.5
0.5
0.5
0.5
0.5
0.5
0.5
0.5
0.5
0.5
0.5
0.5
0.5
0.5
0.5
0.5
0.5
0.5
0.5
0.5
0.5
0.5
0.5
0.5
0.5
0.5
0.5
0.5
0.5
0.5
0.5
0.5
0.5
0.5
0.5
0.5
0.5
0.5
0.5
0.5
0.5
0.5
0.5
0.5
0.5
0.5
0.5
0.5
0.5
0.5
0.5
0.5
0.5
0.5
0.5
0.5
0.5
0.5
0.5
0.5
0.5
0.5
0.5
0.5
0.5
0.5
0.5
0.5
0.5
0.5
0.5
0.5
0.5
0.5
0.5
0.5
0.5
0.5
0.5
0.5
0.5
0.5
0.5
0.5
0.5
0.5
0.5
0.5
0.5
0.5
0.5
0.5
0.5
0.5
0.5
0.5
0.5
0.5
0.5
0.5
0.5
0.5
0.5
0.5
0.5
0.5
0.5
0.5
0.5
0.5
0.5
0.5
0.5
0.5
0.5
0.5
0.5
0.5
0.5
0.5
0.5
0.5
0.5
0.5
0.5
0.5
0.5
0.5
0.5
0.5
0.5
0.5
0.5
0.5
0.5
0.5
0.5
0.5
0.5
0.5
0.5
0.5
0.5
0.5
0.5
0.5
0.5
0.5
0.5
0.5
0.5
0.5
0.5
0.5
0.5
0.5
0.5
0.5
0.5
0.5
0.5
0.5
0.5
0.5
0.5
0.5
0.5
0.5
0.5
0.5
0.5
0.5
0.5
0.5
0.5
0.5
0.5
0.5
0.5
0.5
0.5
0.5
0.5
0.5
0.5
0.5
0.5
0.5
0.5
0.5
0.5
0.5
0.5
0.5
0.5
0.5
0.5
0.5
0.5
0.5
0.5
0.5
0.5
0.5
0.5
0.5
0.5
0.5
0.5
0.5
0.5
0.5
0.5
0.5
0.5
0.5
0.5
0.5
0.5
0.5
0.5
0.5
0.5
