# vtk DataFile Version 2.0
Title Data
ASCII
DATASET UNSTRUCTURED_GRID
POINTS 512 float
0.093548 0.035190 0.033130
0.060540 0.037797 0.079641
0.089450 0.088795 0.049759
0.125796 0.094641 0.038416
0.095465 0.043537 0.068816
0.049909 0.028773 0.109550
0.056217 0.096271 0.132834
0.098024 0.088782 0.097396
0.078737 0.093798 0.028552
0.024931 0.095207 0.099270
0.091302 0.078767 0.093055
0.011498 0.042777 0.079412
0.079935 0.097032 0.160926
0.114844 0.098228 0.171050
0.068376 0.044681 0.168911
0.099837 0.039890 0.159170
0.099846 0.035036 0.200048
0.093597 0.017398 0.199848
0.081927 0.090330 0.235968
0.095729 0.067369 0.201052
0.008972 0.051998 0.281830
0.097277 0.026119 0.264337
0.014839 0.089908 0.269752
0.092858 0.078310 0.267179
0.094721 0.060951 0.357551
0.000093 0.043319 0.358247
0.064651 0.090026 0.331838
0.013087 0.001031 0.333747
0.073121 0.040910 0.473224
0.033804 0.054553 0.475903
0.069221 0.098210 0.453027
0.031558 0.001863 0.469325
0.100360 0.019903 0.051186
0.058827 0.099664 0.071137
0.130536 0.083581 0.089750
0.098486 0.065580 0.046413
0.047123 0.003205 0.095004
0.049574 0.091598 0.015521
0.041079 0.055998 0.132541
0.099860 0.037348 0.099963
0.089672 0.051848 0.129344
0.133275 0.050816 0.070911
0.099095 0.014104 0.099750
0.129861 0.012997 0.038205
0.087431 0.069058 0.061930
0.098018 0.063525 0.143401
0.050077 0.088070 0.074952
0.128076 0.098783 0.132154
0.064792 0.087235 0.170082
0.098841 0.088695 0.182376
0.046589 0.073225 0.177316
0.120618 0.063215 0.193349
0.008947 0.082988 0.228287
0.043562 0.078489 0.232654
0.091345 0.035610 0.237293
0.127960 0.052127 0.235970
0.051238 0.027190 0.277412
0.002267 0.015718 0.272774
0.123206 0.076642 0.287072
0.035375 0.086348 0.303010
0.058381 0.005691 0.340996
0.101695 0.025988 0.364491
0.076468 0.058853 0.395680
0.101950 0.066206 0.396833
0.000824 0.007357 0.059049
0.098426 0.004591 0.128788
0.052497 0.070047 0.023238
0.099964 0.079017 0.119420
0.002585 0.015472 0.136704
0.031050 0.025457 0.058918
0.035400 0.050483 0.099507
0.048851 0.073413 0.091352
0.051078 0.085111 0.130364
0.010580 0.013091 0.019033
0.115285 0.028991 0.099994
0.102964 0.031772 0.138940
0.109612 0.089799 0.140152
0.096148 0.086941 0.135120
0.045350 0.027303 0.164407
0.098477 0.015590 0.166269
0.099973 0.025784 0.216064
0.001522 0.016971 0.184363
0.029202 0.044146 0.209434
0.046448 0.068709 0.205711
0.124416 0.009208 0.264383
0.084916 0.016972 0.253335
0.036719 0.068498 0.264594
0.098374 0.059231 0.252516
0.059478 0.044249 0.327346
0.085759 0.030025 0.326449
0.062113 0.068384 0.298037
0.091386 0.077185 0.320649
0.082964 0.031015 0.407070
0.044163 0.033873 0.436469
0.061170 0.069556 0.430711
0.020567 0.001597 0.419637
0.100009 0.045581 0.110490
0.080205 0.046217 0.099460
0.034192 0.076954 0.136081
0.007501 0.080027 0.106589
0.099968 0.052521 0.091513
0.003192 0.058389 0.127490
0.095670 0.078779 0.012838
0.049403 0.073857 0.058714
0.110785 0.077184 0.099970
0.013757 0.067225 0.002379
0.087094 0.024873 0.058781
0.096740 0.099802 0.069650
0.070775 0.071205 0.136799
0.092975 0.081224 0.161090
0.131516 0.021749 0.135074
0.130947 0.041550 0.138129
0.068790 0.093840 0.202000
0.039660 0.092742 0.205647
0.096473 0.042114 0.171422
0.110862 0.041864 0.199973
0.101865 0.095161 0.248429
0.040507 0.004402 0.238391
0.001770 0.054424 0.239829
0.052401 0.045478 0.259399
0.093708 0.095694 0.299438
0.100171 0.008113 0.299768
0.050309 0.048986 0.299613
0.001398 0.037425 0.313275
0.060598 0.004578 0.406691
0.100025 0.020837 0.396294
0.049351 0.071527 0.357624
0.100120 0.083852 0.363235
0.064021 0.008653 0.049903
0.166345 0.098224 0.106815
0.094444 0.051109 0.017961
0.180832 0.056192 0.141519
0.099607 0.095004 0.099969
0.176583 0.092887 0.138074
0.129446 0.055998 0.098628
0.145476 0.039261 0.002941
0.018428 0.014141 0.101480
0.139929 0.002059 0.100924
0.100306 0.053215 0.055639
0.166487 0.047434 0.040684
0.009823 0.093599 0.145963
0.141236 0.008543 0.148397
0.024791 0.060692 0.163106
0.136468 0.064069 0.144297
0.033866 0.019698 0.207163
0.160636 0.028986 0.206150
0.099978 0.088408 0.200357
0.147735 0.090898 0.203804
0.096136 0.053983 0.271188
0.137183 0.044186 0.273512
0.054272 0.099255 0.269960
0.133482 0.092563 0.276723
0.093602 0.057983 0.337808
0.140551 0.061138 0.342325
0.104124 0.010645 0.337027
0.136449 0.093215 0.362837
0.091425 0.072893 0.466724
0.128201 0.075363 0.476514
0.103420 0.024540 0.470677
0.121522 0.012877 0.444816
0.116106 0.051288 0.159382
0.155295 0.052203 0.118258
0.134315 0.000289 0.081394
0.139628 0.093146 0.085382
0.052585 0.054397 0.091613
0.132258 0.056324 0.104263
0.038708 0.013048 0.139158
0.171675 0.006449 0.129576
0.127986 0.069802 0.032446
0.141404 0.067154 0.124829
0.051022 0.035662 0.007233
0.062651 0.017472 0.098176
0.010638 0.075411 0.043685
0.005345 0.065569 0.087790
0.046335 0.045232 0.053786
0.099226 0.026970 0.099941
0.047999 0.004835 0.175596
0.026634 0.091337 0.172424
0.121952 0.079560 0.168563
0.139758 0.081036 0.181062
0.061334 0.012931 0.229941
0.099998 0.095810 0.200066
0.099063 0.069074 0.231780
0.062521 0.048090 0.233229
0.099977 0.040326 0.296013
0.139037 0.018294 0.289302
0.066475 0.088736 0.273387
0.099971 0.083454 0.299987
0.033149 0.005741 0.373785
0.069581 0.032391 0.369357
0.036870 0.074759 0.392225
0.033720 0.041865 0.393167
0.098848 0.088037 0.060872
0.142842 0.090176 0.112640
0.139911 0.026926 0.072293
0.161640 0.027121 0.121448
0.063107 0.089942 0.104546
0.157504 0.085180 0.002758
0.122336 0.018030 0.100002
0.172402 0.022492 0.063340
0.099198 0.099664 0.099471
0.138018 0.004091 0.058826
0.036961 0.034659 0.133233
0.132514 0.049368 0.049927
0.078951 0.005814 0.140308
0.136796 0.086947 0.137809
0.065997 0.047836 0.136041
0.008066 0.041910 0.027041
0.061478 0.025705 0.181853
0.139564 0.036108 0.183366
0.099902 0.060462 0.199999
0.146297 0.072460 0.204414
0.019624 0.030744 0.242806
0.062159 0.045176 0.205300
0.126271 0.077865 0.235933
0.100011 0.078571 0.199998
0.037110 0.039256 0.345831
0.129733 0.030109 0.328497
0.020274 0.070187 0.323672
0.119279 0.087987 0.332145
0.092084 0.039672 0.432870
0.121573 0.057092 0.432470
0.013677 0.065724 0.432519
0.141587 0.084716 0.413835
0.137101 0.081434 0.028733
0.161787 0.085882 0.058168
0.054355 0.017578 0.027369
0.155640 0.034103 0.089543
0.063763 0.075675 0.097838
0.165942 0.079199 0.102250
0.092585 0.097464 0.099841
0.174311 0.039664 0.136419
0.101158 0.014739 0.008999
0.135869 0.074940 0.070482
0.099985 0.065992 0.098226
0.138488 0.034491 0.029921
0.024792 0.088568 0.054216
0.006191 0.094467 0.095742
0.078258 0.024331 0.137173
0.060063 0.056872 0.040471
0.128458 0.004620 0.179487
0.135479 0.016492 0.199729
0.068160 0.068576 0.170002
0.023769 0.046765 0.175058
0.098980 0.002042 0.199886
0.100001 0.002395 0.226439
0.099933 0.052824 0.200048
0.068363 0.074016 0.237561
0.039357 0.013441 0.304671
0.083535 0.020152 0.299652
0.099988 0.056485 0.299977
0.125042 0.050323 0.304634
0.098933 0.090811 0.428113
0.123025 0.013506 0.400095
0.095331 0.088554 0.399932
0.084251 0.091800 0.367784
0.199983 0.001101 0.091851
0.281035 0.057631 0.098948
0.229982 0.096264 0.074488
0.273195 0.098463 0.002490
0.201267 0.029288 0.095940
0.267251 0.024352 0.068976
0.219759 0.071218 0.022356
0.272602 0.078853 0.090266
0.201134 0.035855 0.006317
0.270004 0.053453 0.111826
0.199962 0.083521 0.099955
0.270953 0.092046 0.114073
0.211247 0.032164 0.138552
0.277375 0.040448 0.139088
0.205196 0.089192 0.146844
0.274763 0.086285 0.136933
0.196887 0.007455 0.170527
0.255020 0.029455 0.151060
0.182249 0.081764 0.180765
0.250674 0.075485 0.150024
0.169592 0.035344 0.246725
0.233316 0.028834 0.185548
0.143202 0.077122 0.248843
0.230055 0.083582 0.186771
0.188782 0.061945 0.335481
0.269090 0.059762 0.338705
0.177386 0.092930 0.345203
0.254742 0.003537 0.346830
0.162444 0.056831 0.453493
0.259732 0.046626 0.424694
0.161015 0.008290 0.449301
0.090786 0.003193 0.499956
0.177148 0.095086 0.073030
0.231184 0.086973 0.098175
0.159942 0.067211 0.062285
0.230737 0.039831 0.095886
0.176493 0.085211 0.096180
0.240144 0.087805 0.048392
0.171569 0.057399 0.074006
0.228572 0.048078 0.032143
0.171157 0.009049 0.025393
0.222941 0.016994 0.061687
0.172964 0.066246 0.011992
0.218284 0.068620 0.065311
0.168725 0.093913 0.046240
0.233262 0.081809 0.111175
0.184532 0.076414 0.135163
0.219616 0.038988 0.055556
0.158439 0.082138 0.149703
0.224323 0.096524 0.133177
0.145135 0.038511 0.163932
0.221493 0.049780 0.133148
0.163744 0.001311 0.210866
0.196100 0.094555 0.200925
0.157295 0.051051 0.211156
0.185255 0.032391 0.181140
0.183321 0.035514 0.284034
0.201034 0.012017 0.300019
0.160774 0.077515 0.288228
0.190540 0.087582 0.299777
0.139700 0.027454 0.366637
0.210830 0.021655 0.354846
0.130233 0.059488 0.382236
0.203514 0.092346 0.385073
0.199977 0.017162 0.099977
0.265897 0.009547 0.048085
0.200032 0.051291 0.099983
0.262659 0.069438 0.017632
0.163103 0.021504 0.098016
0.259691 0.011249 0.116612
0.198591 0.079858 0.040047
0.262376 0.053451 0.064448
0.184686 0.028474 0.050120
0.252652 0.035354 0.020090
0.199947 0.069018 0.099976
0.263282 0.068265 0.048590
0.190203 0.028716 0.150350
0.241749 0.034259 0.077232
0.204106 0.070939 0.158820
0.235733 0.073744 0.131659
0.166045 0.012710 0.167853
0.244633 0.006138 0.144599
0.180787 0.059494 0.178174
0.229018 0.064752 0.170425
0.140905 0.016620 0.242451
0.189155 0.023788 0.234155
0.169114 0.068363 0.222830
0.199968 0.066705 0.200009
0.170308 0.033479 0.352989
0.235765 0.038784 0.319732
0.148001 0.084741 0.317527
0.221038 0.086432 0.327726
0.154597 0.040636 0.411984
0.198565 0.042881 0.394829
0.186539 0.080689 0.419357
0.244808 0.080969 0.397197
0.200027 0.092722 0.099996
0.250719 0.093024 0.089704
0.196708 0.040174 0.098960
0.243294 0.055467 0.098150
0.201398 0.095570 0.047251
0.240012 0.000991 0.029333
0.172544 0.051611 0.094704
0.241552 0.043276 0.124573
0.200000 0.099702 0.099986
0.212731 0.011772 0.023426
0.200020 0.065754 0.114046
0.201763 0.064918 0.068743
0.206008 0.009973 0.128131
0.238585 0.015089 0.102472
0.186055 0.055494 0.035426
0.245144 0.073767 0.073188
0.162305 0.094821 0.169152
0.224713 0.098501 0.169197
0.158767 0.057450 0.169674
0.223703 0.042155 0.166531
0.131464 0.095968 0.227352
0.200045 0.085929 0.199982
0.132457 0.034364 0.231419
0.200029 0.050463 0.200014
0.152197 0.010414 0.317304
0.194499 0.020919 0.318048
0.165095 0.050586 0.309757
0.200019 0.058401 0.299994
0.167981 0.008576 0.390766
0.244470 0.026780 0.386087
0.168776 0.069112 0.376905
0.225359 0.061913 0.360265
0.360990 0.053268 0.076260
0.468602 0.038127 0.075814
0.346960 0.092277 0.086697
0.455492 0.095492 0.083152
0.358304 0.041544 0.098028
0.474987 0.054894 0.037213
0.338797 0.000204 0.012011
0.465341 0.002951 0.039789
0.338017 0.064146 0.101744
0.475157 0.070857 0.085457
0.340862 0.009173 0.102358
0.461858 0.023381 0.101958
0.346457 0.063545 0.142122
0.473465 0.072420 0.126933
0.358197 0.093300 0.135622
0.442301 0.021334 0.127408
0.337040 0.058322 0.193660
0.451985 0.051078 0.161682
0.351407 0.093250 0.177395
0.499928 0.008357 0.094780
0.344687 0.060165 0.262334
0.470512 0.040705 0.217581
0.347434 0.007345 0.254665
0.461896 0.002330 0.159886
0.228775 0.019844 0.232144
0.273118 0.048694 0.230352
0.216498 0.085517 0.235535
0.293483 0.089612 0.222819
0.231800 0.036580 0.278226
0.272958 0.043846 0.289920
0.236751 0.082882 0.291599
0.278169 0.095095 0.291790
0.286275 0.030484 0.032278
0.355899 0.011171 0.058703
0.300038 0.069170 0.095601
0.399691 0.071875 0.095454
0.274532 0.020238 0.090633
0.365500 0.031186 0.106837
0.298664 0.078808 0.030908
0.399966 0.051303 0.099458
0.299997 0.030756 0.092376
0.376409 0.000802 0.024442
0.282834 0.092069 0.058277
0.391508 0.065699 0.012429
0.294437 0.019643 0.132359
0.389008 0.027996 0.053973
0.300018 0.088580 0.099195
0.392429 0.053541 0.050056
0.293492 0.029252 0.174770
0.371097 0.027802 0.138689
0.295478 0.093955 0.150641
0.384780 0.067871 0.132510
0.299987 0.025340 0.200007
0.359993 0.020016 0.210401
0.300008 0.090356 0.199103
0.398116 0.091656 0.207466
0.179003 0.095949 0.235921
0.263701 0.091189 0.180896
0.187048 0.065829 0.235482
0.277959 0.063647 0.150057
0.169545 0.091140 0.256787
0.258300 0.084304 0.224565
0.157359 0.057146 0.266062
0.229419 0.044600 0.230539
0.323420 0.041176 0.058441
0.400001 0.029305 0.098792
0.325050 0.071484 0.051588
0.432787 0.067882 0.060490
0.326647 0.030425 0.086637
0.431606 0.037161 0.030757
0.320933 0.077573 0.075492
0.417818 0.094528 0.032613
0.349692 0.039990 0.033945
0.432401 0.041672 0.086913
0.327927 0.071854 0.004395
0.439692 0.073136 0.009477
0.328170 0.033494 0.130425
0.430739 0.062566 0.118207
0.321041 0.085449 0.125824
0.422970 0.086091 0.144896
0.358070 0.037177 0.169237
0.409791 0.042961 0.152359
0.315005 0.082506 0.167639
0.421488 0.080744 0.188069
0.320904 0.039533 0.233349
0.399567 0.042966 0.197907
0.333384 0.084896 0.221154
0.469551 0.078783 0.194866
0.199979 0.014078 0.199976
0.270608 0.008783 0.172890
0.237899 0.063863 0.213071
0.273190 0.066934 0.184921
0.171012 0.012249 0.275715
0.288675 0.018458 0.253378
0.201046 0.074115 0.270091
0.292623 0.070054 0.256986
0.318388 0.003082 0.057509
0.423112 0.013821 0.062565
0.294060 0.050092 0.051056
0.357383 0.076061 0.043950
0.300737 0.097915 0.099989
0.400130 0.022189 0.099973
0.314058 0.040605 0.005199
0.363346 0.080551 0.099077
0.309185 0.010924 0.027295
0.423114 0.092780 0.099061
0.300002 0.049413 0.099567
0.390316 0.086820 0.065861
0.299997 0.011024 0.099980
0.399999 0.004521 0.126772
0.307694 0.059887 0.127352
0.385121 0.002438 0.095283
0.328045 0.014876 0.147855
0.392806 0.009076 0.170732
0.312967 0.052516 0.164252
0.377797 0.071120 0.173252
0.323790 0.017070 0.192003
0.392085 0.025031 0.241695
0.299971 0.060606 0.199995
0.369292 0.063412 0.222003
0.236365 0.004743 0.205450
0.266226 0.019502 0.214971
0.199993 0.035689 0.200026
0.258848 0.046061 0.187714
0.211083 0.004466 0.262751
0.251501 0.005164 0.257932
0.203236 0.049345 0.253762
0.246132 0.066106 0.259301

CELL_TYPES 512
1
1
1
1
1
1
1
1
1
1
1
1
1
1
1
1
1
1
1
1
1
1
1
1
1
1
1
1
1
1
1
1
1
1
1
1
1
1
1
1
1
1
1
1
1
1
1
1
1
1
1
1
1
1
1
1
1
1
1
1
1
1
1
1
1
1
1
1
1
1
1
1
1
1
1
1
1
1
1
1
1
1
1
1
1
1
1
1
1
1
1
1
1
1
1
1
1
1
1
1
1
1
1
1
1
1
1
1
1
1
1
1
1
1
1
1
1
1
1
1
1
1
1
1
1
1
1
1
1
1
1
1
1
1
1
1
1
1
1
1
1
1
1
1
1
1
1
1
1
1
1
1
1
1
1
1
1
1
1
1
1
1
1
1
1
1
1
1
1
1
1
1
1
1
1
1
1
1
1
1
1
1
1
1
1
1
1
1
1
1
1
1
1
1
1
1
1
1
1
1
1
1
1
1
1
1
1
1
1
1
1
1
1
1
1
1
1
1
1
1
1
1
1
1
1
1
1
1
1
1
1
1
1
1
1
1
1
1
1
1
1
1
1
1
1
1
1
1
1
1
1
1
1
1
1
1
1
1
1
1
1
1
1
1
1
1
1
1
1
1
1
1
1
1
1
1
1
1
1
1
1
1
1
1
1
1
1
1
1
1
1
1
1
1
1
1
1
1
1
1
1
1
1
1
1
1
1
1
1
1
1
1
1
1
1
1
1
1
1
1
1
1
1
1
1
1
1
1
1
1
1
1
1
1
1
1
1
1
1
1
1
1
1
1
1
1
1
1
1
1
1
1
1
1
1
1
1
1
1
1
1
1
1
1
1
1
1
1
1
1
1
1
1
1
1
1
1
1
1
1
1
1
1
1
1
1
1
1
1
1
1
1
1
1
1
1
1
1
1
1
1
1
1
1
1
1
1
1
1
1
1
1
1
1
1
1
1
1
1
1
1
1
1
1
1
1
1
1
1
1
1
1
1
1
1
1
1
1
1
1
1
1
1
1
1
1
1
1
1
1
1
1
1
1
1
1
1
1
1
1
1
1
1
1
1
1
1
1
1
1
1
1
1
1
1
1
1
1
1
1
1
1
1
1
1
1
1
1
1
1
1
1
1
1
1
1
1
1
1
1
1
1
1
1
1
1
1
1
1
1
1
1

POINT_DATA 512
SCALARS radius float
LOOKUP_TABLE default
0.5
0.5
0.5
0.5
0.5
0.5
0.5
0.5
0.5
0.5
0.5
0.5
0.5
0.5
0.5
0.5
0.5
0.5
0.5
0.5
0.5
0.5
0.5
0.5
0.5
0.5
0.5
0.5
0.5
0.5
0.5
0.5
0.5
0.5
0.5
0.5
0.5
0.5
0.5
0.5
0.5
0.5
0.5
0.5
0.5
0.5
0.5
0.5
0.5
0.5
0.5
0.5
0.5
0.5
0.5
0.5
0.5
0.5
0.5
0.5
0.5
0.5
0.5
0.5
0.5
0.5
0.5
0.5
0.5
0.5
0.5
0.5
0.5
0.5
0.5
0.5
0.5
0.5
0.5
0.5
0.5
0.5
0.5
0.5
0.5
0.5
0.5
0.5
0.5
0.5
0.5
0.5
0.5
0.5
0.5
0.5
0.5
0.5
0.5
0.5
0.5
0.5
0.5
0.5
0.5
0.5
0.5
0.5
0.5
0.5
0.5
0.5
0.5
0.5
0.5
0.5
0.5
0.5
0.5
0.5
0.5
0.5
0.5
0.5
0.5
0.5
0.5
0.5
0.5
0.5
0.5
0.5
0.5
0.5
0.5
0.5
0.5
0.5
0.5
0.5
0.5
0.5
0.5
0.5
0.5
0.5
0.5
0.5
0.5
0.5
0.5
0.5
0.5
0.5
0.5
0.5
0.5
0.5
0.5
0.5
0.5
0.5
0.5
0.5
0.5
0.5
0.5
0.5
0.5
0.5
0.5
0.5
0.5
0.5
0.5
0.5
0.5
0.5
0.5
0.5
0.5
0.5
0.5
0.5
0.5
0.5
0.5
0.5
0.5
0.5
0.5
0.5
0.5
0.5
0.5
0.5
0.5
0.5
0.5
0.5
0.5
0.5
0.5
0.5
0.5
0.5
0.5
0.5
0.5
0.5
0.5
0.5
0.5
0.5
0.5
0.5
0.5
0.5
0.5
0.5
0.5
0.5
0.5
0.5
0.5
0.5
0.5
0.5
0.5
0.5
0.5
0.5
0.5
0.5
0.5
0.5
0.5
0.5
0.5
0.5
0.5
0.5
0.5
0.5
0.5
0.5
0.5
0.5
0.5
0.5
0.5
0.5
0.5
0.5
0.5
0.5
0.5
0.5
0.5
0.5
0.5
0.5
0.5
0.5
0.5
0.5
0.5
0.5
0.5
0.5
0.5
0.5
0.5
0.5
0.5
0.5
0.5
0.5
0.5
0.5
0.5
0.5
0.5
0.5
0.5
0.5
0.5
0.5
0.5
0.5
0.5
0.5
0.5
0.5
0.5
0.5
0.5
0.5
0.5
0.5
0.5
0.5
0.5
0.5
0.5
0.5
0.5
0.5
0.5
0.5
0.5
0.5
0.5
0.5
0.5
0.5
0.5
0.5
0.5
0.5
0.5
0.5
0.5
0.5
0.5
0.5
0.5
0.5
0.5
0.5
0.5
0.5
0.5
0.5
0.5
0.5
0.5
0.5
0.5
0.5
0.5
0.5
0.5
0.5
0.5
0.5
0.5
0.5
0.5
0.5
0.5
0.5
0.5
0.5
0.5
0.5
0.5
0.5
0.5
0.5
0.5
0.5
0.5
0.5
0.5
0.5
0.5
0.5
0.5
0.5
0.5
0.5
0.5
0.5
0.5
0.5
0.5
0.5
0.5
0.5
0.5
0.5
0.5
0.5
0.5
0.5
0.5
0.5
0.5
0.5
0.5
0.5
0.5
0.5
0.5
0.5
0.5
0.5
0.5
0.5
0.5
0.5
0.5
0.5
0.5
0.5
0.5
0.5
0.5
0.5
0.5
0.5
0.5
0.5
0.5
0.5
0.5
0.5
0.5
0.5
0.5
0.5
0.5
0.5
0.5
0.5
0.5
0.5
0.5
0.5
0.5
0.5
0.5
0.5
0.5
0.5
0.5
0.5
0.5
0.5
0.5
0.5
0.5
0.5
0.5
0.5
0.5
0.5
0.5
0.5
0.5
0.5
0.5
0.5
0.5
0.5
0.5
0.5
0.5
0.5
0.5
0.5
0.5
0.5
0.5
0.5
0.5
0.5
0.5
0.5
0.5
0.5
0.5
0.5
0.5
0.5
0.5
0.5
0.5
0.5
0.5
0.5
0.5
0.5
0.5
0.5
0.5
0.5
0.5
0.5
0.5
0.5
0.5
0.5
0.5
0.5
0.5
0.5
0.5
0.5
0.5
0.5
0.5
0.5
0.5
0.5
0.5
0.5
0.5
0.5
0.5
0.5
