# vtk DataFile Version 2.0
Title Data
ASCII
DATASET UNSTRUCTURED_GRID
POINTS 512 float
0.025000 0.071096 0.025000
0.075000 0.071096 0.025000
0.025000 0.012289 0.025000
0.075000 0.012289 0.025000
0.025000 0.071096 0.075000
0.075000 0.071096 0.075000
0.025000 0.012289 0.075000
0.075000 0.012289 0.075000
0.025000 0.054790 0.134693
0.075000 0.054790 0.134693
0.025000 0.096471 0.133242
0.075000 0.096471 0.133242
0.025000 0.054792 0.183790
0.075000 0.054792 0.183790
0.025000 0.096467 0.182743
0.075000 0.096467 0.182743
0.025000 0.058289 0.248426
0.075000 0.058289 0.248426
0.025000 0.098368 0.245799
0.075000 0.098368 0.245799
0.025000 0.058165 0.297529
0.075000 0.058165 0.297529
0.025000 0.098364 0.295139
0.075000 0.098364 0.295139
0.025000 0.035313 0.377270
0.075000 0.035313 0.377270
0.025000 0.078771 0.374891
0.075000 0.078771 0.374891
0.025000 0.035519 0.426436
0.075000 0.035519 0.426436
0.025000 0.078957 0.424770
0.075000 0.078957 0.424770
0.025000 0.053963 0.025000
0.075000 0.053963 0.025000
0.025000 0.105832 0.025000
0.075000 0.105832 0.025000
0.025000 0.053963 0.075000
0.075000 0.053963 0.075000
0.025000 0.105832 0.075000
0.075000 0.105832 0.075000
0.025000 0.036770 0.131545
0.075000 0.036770 0.131545
0.025000 0.089394 0.131816
0.075000 0.089394 0.131816
0.025000 0.036718 0.181365
0.075000 0.036718 0.181365
0.025000 0.089403 0.181495
0.075000 0.089403 0.181495
0.025000 0.038879 0.242518
0.075000 0.038879 0.242518
0.025000 0.093306 0.243424
0.075000 0.093306 0.243424
0.025000 0.038659 0.292703
0.075000 0.038659 0.292703
0.025000 0.093322 0.292970
0.075000 0.093322 0.292970
0.025000 0.013368 0.367228
0.075000 0.013368 0.367228
0.025000 0.069567 0.366496
0.075000 0.069567 0.366496
0.025000 0.012503 0.418695
0.075000 0.012503 0.418695
0.025000 0.068792 0.417389
0.075000 0.068792 0.417389
0.025000 0.147969 0.025000
0.075000 0.147969 0.025000
0.025000 0.191523 0.025000
0.075000 0.191523 0.025000
0.025000 0.147969 0.075000
0.075000 0.147969 0.075000
0.025000 0.191523 0.075000
0.075000 0.191523 0.075000
0.025000 0.132460 0.131544
0.075000 0.132460 0.131544
0.025000 0.175997 0.131045
0.075000 0.175997 0.131045
0.025000 0.132464 0.181197
0.075000 0.132464 0.181197
0.025000 0.175981 0.180731
0.075000 0.175981 0.180731
0.025000 0.135857 0.242862
0.075000 0.135857 0.242862
0.025000 0.179575 0.241809
0.075000 0.179575 0.241809
0.025000 0.135853 0.292398
0.075000 0.135853 0.292398
0.025000 0.179481 0.291372
0.075000 0.179481 0.291372
0.025000 0.116839 0.368970
0.075000 0.116839 0.368970
0.025000 0.160176 0.367622
0.075000 0.160176 0.367622
0.025000 0.116821 0.418665
0.075000 0.116821 0.418665
0.025000 0.160575 0.417365
0.075000 0.160575 0.417365
0.025000 0.235696 0.025000
0.075000 0.235696 0.025000
0.025000 0.281583 0.025000
0.075000 0.281583 0.025000
0.025000 0.235696 0.075000
0.075000 0.235696 0.075000
0.025000 0.281583 0.075000
0.075000 0.281583 0.075000
0.025000 0.220639 0.130495
0.075000 0.220639 0.130495
0.025000 0.266884 0.128374
0.075000 0.266884 0.128374
0.025000 0.220599 0.180207
0.075000 0.220599 0.180207
0.025000 0.266801 0.177981
0.075000 0.266801 0.177981
0.025000 0.224502 0.240708
0.075000 0.224502 0.240708
0.025000 0.270941 0.235805
0.075000 0.270941 0.235805
0.025000 0.224285 0.290275
0.075000 0.224285 0.290275
0.025000 0.270509 0.285171
0.075000 0.270509 0.285171
0.025000 0.205648 0.366190
0.075000 0.205648 0.366190
0.025000 0.252276 0.358604
0.075000 0.252276 0.358604
0.025000 0.206402 0.415811
0.075000 0.206402 0.415811
0.025000 0.253084 0.406555
0.075000 0.253084 0.406555
0.134693 0.054790 0.025000
0.183790 0.054792 0.025000
0.133242 0.096471 0.025000
0.182743 0.096467 0.025000
0.134693 0.054790 0.075000
0.183790 0.054792 0.075000
0.133242 0.096471 0.075000
0.182743 0.096467 0.075000
0.135725 0.052041 0.135725
0.184916 0.052123 0.135640
0.134369 0.093977 0.134369
0.183872 0.093989 0.134305
0.135640 0.052123 0.184916
0.184835 0.052172 0.184835
0.134305 0.093989 0.183872
0.183812 0.093984 0.183812
0.135874 0.058813 0.248401
0.185068 0.058658 0.248235
0.134734 0.098201 0.245992
0.184173 0.098242 0.245874
0.135708 0.058780 0.297401
0.184927 0.058910 0.297263
0.134638 0.098247 0.295306
0.184089 0.098204 0.295192
0.133044 0.037240 0.374926
0.182201 0.037389 0.374589
0.132658 0.080750 0.372732
0.181946 0.080751 0.372464
0.132689 0.037428 0.424027
0.181927 0.037570 0.423682
0.132411 0.080725 0.422671
0.181686 0.080717 0.422372
0.131545 0.036770 0.025000
0.181365 0.036718 0.025000
0.131816 0.089394 0.025000
0.181495 0.089403 0.025000
0.131545 0.036770 0.075000
0.181365 0.036718 0.075000
0.131816 0.089394 0.075000
0.181495 0.089403 0.075000
0.132683 0.033409 0.132683
0.182351 0.033484 0.132616
0.132974 0.086780 0.132974
0.182591 0.086948 0.132911
0.132616 0.033484 0.182351
0.182302 0.033474 0.182302
0.132911 0.086948 0.182591
0.182542 0.086946 0.182542
0.133511 0.038695 0.242946
0.183047 0.038475 0.242842
0.133933 0.094314 0.243869
0.183431 0.094038 0.243738
0.133406 0.038459 0.292941
0.182970 0.038529 0.292867
0.133827 0.094241 0.293309
0.183359 0.094410 0.293235
0.131850 0.015189 0.365852
0.181161 0.015306 0.365529
0.131795 0.071650 0.365309
0.181191 0.071840 0.364862
0.131580 0.014471 0.417003
0.180960 0.014581 0.416639
0.131462 0.071168 0.415947
0.181045 0.071329 0.415546
0.131544 0.132460 0.025000
0.181197 0.132464 0.025000
0.131045 0.175997 0.025000
0.180731 0.175981 0.025000
0.131544 0.132460 0.075000
0.181197 0.132464 0.075000
0.131045 0.175997 0.075000
0.180731 0.175981 0.075000
0.132861 0.130780 0.132861
0.182450 0.131055 0.132813
0.132420 0.174353 0.132420
0.182046 0.174763 0.132378
0.132813 0.131055 0.182450
0.182404 0.131002 0.182404
0.132378 0.174763 0.182046
0.182003 0.174631 0.182003
0.133798 0.137257 0.243555
0.183328 0.136974 0.243456
0.133467 0.181412 0.242741
0.183030 0.181005 0.242657
0.133711 0.137188 0.293028
0.183256 0.137375 0.292947
0.133382 0.181236 0.292252
0.182956 0.181557 0.292174
0.131976 0.119097 0.367579
0.181358 0.119266 0.367254
0.131734 0.162901 0.366456
0.181223 0.163147 0.366128
0.131755 0.119193 0.417314
0.181219 0.119337 0.416974
0.131593 0.163346 0.416232
0.181122 0.163578 0.415883
0.130495 0.220639 0.025000
0.180207 0.220599 0.025000
0.128374 0.266884 0.025000
0.177981 0.266801 0.025000
0.130495 0.220639 0.075000
0.180207 0.220599 0.075000
0.128374 0.266884 0.075000
0.177981 0.266801 0.075000
0.131936 0.219331 0.131936
0.181582 0.219856 0.131900
0.129824 0.265844 0.129824
0.179358 0.266436 0.129781
0.131900 0.219856 0.181582
0.181533 0.219656 0.181533
0.129781 0.266436 0.179358
0.179286 0.266175 0.179286
0.133144 0.226811 0.241908
0.182697 0.226306 0.241817
0.131927 0.273673 0.237911
0.181322 0.273094 0.237805
0.133037 0.226557 0.291410
0.182599 0.226965 0.291319
0.131796 0.273334 0.287151
0.181200 0.273748 0.287078
0.131497 0.208842 0.365267
0.181051 0.209148 0.364910
0.130920 0.256164 0.359778
0.180398 0.256513 0.359637
0.131414 0.209597 0.414950
0.180971 0.209884 0.414556
0.130803 0.257058 0.407876
0.180184 0.257402 0.407694
0.248426 0.058289 0.025000
0.297529 0.058165 0.025000
0.245799 0.098368 0.025000
0.295139 0.098364 0.025000
0.248426 0.058289 0.075000
0.297529 0.058165 0.075000
0.245799 0.098368 0.075000
0.295139 0.098364 0.075000
0.248401 0.058813 0.135874
0.297401 0.058780 0.135708
0.245992 0.098201 0.134734
0.295306 0.098247 0.134638
0.248235 0.058658 0.185068
0.297263 0.058910 0.184927
0.245874 0.098242 0.184173
0.295192 0.098204 0.184089
0.246101 0.055460 0.246101
0.294923 0.055475 0.245881
0.244351 0.095806 0.244351
0.293641 0.095601 0.244212
0.245881 0.055475 0.294923
0.294741 0.055492 0.294741
0.244212 0.095601 0.293641
0.293524 0.095651 0.293524
0.240926 0.040017 0.369404
0.289638 0.040184 0.369023
0.240124 0.083293 0.367541
0.289214 0.083278 0.367210
0.240383 0.040281 0.418508
0.289234 0.040418 0.418096
0.239699 0.083395 0.417430
0.288846 0.083404 0.417054
0.242518 0.038879 0.025000
0.292703 0.038659 0.025000
0.243424 0.093306 0.025000
0.292970 0.093322 0.025000
0.242518 0.038879 0.075000
0.292703 0.038659 0.075000
0.243424 0.093306 0.075000
0.292970 0.093322 0.075000
0.242946 0.038695 0.133511
0.292941 0.038459 0.133406
0.243869 0.094314 0.133933
0.293309 0.094241 0.133827
0.242842 0.038475 0.183047
0.292867 0.038529 0.182970
0.243738 0.094038 0.183431
0.293235 0.094410 0.183359
0.242005 0.034801 0.242005
0.291535 0.034705 0.241847
0.242457 0.090695 0.242457
0.291858 0.090701 0.242270
0.241847 0.034705 0.291535
0.291401 0.034620 0.291401
0.242270 0.090701 0.291858
0.291715 0.090672 0.291715
0.238650 0.017893 0.362196
0.287703 0.018069 0.361711
0.238516 0.074313 0.361705
0.287768 0.074523 0.361138
0.238196 0.017492 0.412943
0.287365 0.017635 0.412427
0.237996 0.073943 0.412308
0.287451 0.074132 0.411724
0.242862 0.135857 0.025000
0.292398 0.135853 0.025000
0.241809 0.179575 0.025000
0.291372 0.179481 0.025000
0.242862 0.135857 0.075000
0.292398 0.135853 0.075000
0.241809 0.179575 0.075000
0.291372 0.179481 0.075000
0.243555 0.137257 0.133798
0.293028 0.137188 0.133711
0.242741 0.181412 0.133467
0.292252 0.181236 0.133382
0.243456 0.136974 0.183328
0.292947 0.137375 0.183256
0.242657 0.181005 0.183030
0.292174 0.181557 0.182956
0.242493 0.134780 0.242493
0.291887 0.134761 0.242365
0.241896 0.178975 0.241896
0.291350 0.178937 0.241789
0.242365 0.134761 0.291887
0.291789 0.134804 0.291789
0.241789 0.178937 0.291350
0.291285 0.178975 0.291285
0.238845 0.121580 0.363460
0.288012 0.121755 0.363085
0.238349 0.165520 0.362524
0.287701 0.165736 0.362169
0.238456 0.121649 0.413317
0.287740 0.121831 0.412888
0.238079 0.165851 0.412378
0.287488 0.166072 0.411983
0.240708 0.224502 0.025000
0.290275 0.224285 0.025000
0.235805 0.270941 0.025000
0.285171 0.270509 0.025000
0.240708 0.224502 0.075000
0.290275 0.224285 0.075000
0.235805 0.270941 0.075000
0.285171 0.270509 0.075000
0.241908 0.226811 0.133144
0.291410 0.226557 0.133037
0.237911 0.273673 0.131927
0.287151 0.273334 0.131796
0.241817 0.226306 0.182697
0.291319 0.226965 0.182599
0.237805 0.273094 0.181322
0.287078 0.273748 0.181200
0.241297 0.224715 0.241297
0.290734 0.224633 0.241176
0.238995 0.271962 0.238995
0.288060 0.271752 0.238790
0.241176 0.224633 0.290734
0.290693 0.224700 0.290693
0.238790 0.271752 0.288060
0.287991 0.271863 0.287991
0.237852 0.211627 0.361551
0.287322 0.211891 0.361173
0.236579 0.259258 0.357814
0.285904 0.259570 0.357695
0.237638 0.212107 0.411253
0.287105 0.212369 0.410850
0.236270 0.259782 0.406116
0.285456 0.260089 0.405960
0.377270 0.035313 0.025000
0.426436 0.035519 0.025000
0.374891 0.078771 0.025000
0.424770 0.078957 0.025000
0.377270 0.035313 0.075000
0.426436 0.035519 0.075000
0.374891 0.078771 0.075000
0.424770 0.078957 0.075000
0.374926 0.037240 0.133044
0.424027 0.037428 0.132689
0.372732 0.080750 0.132658
0.422671 0.080725 0.132411
0.374589 0.037389 0.182201
0.423682 0.037570 0.181927
0.372464 0.080751 0.181946
0.422372 0.080717 0.181686
0.369404 0.040017 0.240926
0.418508 0.040281 0.240383
0.367541 0.083293 0.240124
0.417430 0.083395 0.239699
0.369023 0.040184 0.289638
0.418096 0.040418 0.289234
0.367210 0.083278 0.289214
0.417054 0.083404 0.288846
0.358042 0.039214 0.358042
0.405845 0.039283 0.357406
0.356645 0.082784 0.356645
0.405206 0.083004 0.356079
0.357406 0.039283 0.405845
0.405079 0.039008 0.405079
0.356079 0.083004 0.405206
0.404563 0.082216 0.404563
0.367228 0.013368 0.025000
0.418695 0.012503 0.025000
0.366496 0.069567 0.025000
0.417389 0.068792 0.025000
0.367228 0.013368 0.075000
0.418695 0.012503 0.075000
0.366496 0.069567 0.075000
0.417389 0.068792 0.075000
0.365852 0.015189 0.131850
0.417003 0.014471 0.131580
0.365309 0.071650 0.131795
0.415947 0.071168 0.131462
0.365529 0.015306 0.181161
0.416639 0.014581 0.180960
0.364862 0.071840 0.181191
0.415546 0.071329 0.181045
0.362196 0.017893 0.238650
0.412943 0.017492 0.238196
0.361705 0.074313 0.238516
0.412308 0.073943 0.237996
0.361711 0.018069 0.287703
0.412427 0.017635 0.287365
0.361138 0.074523 0.287768
0.411724 0.074132 0.287451
0.353629 0.016774 0.353629
0.402330 0.016711 0.353050
0.353338 0.073043 0.353338
0.402235 0.073091 0.352742
0.353050 0.016711 0.402330
0.401963 0.017610 0.401963
0.352742 0.073091 0.402235
0.402098 0.073267 0.402098
0.368970 0.116839 0.025000
0.418665 0.116821 0.025000
0.367622 0.160176 0.025000
0.417365 0.160575 0.025000
0.368970 0.116839 0.075000
0.418665 0.116821 0.075000
0.367622 0.160176 0.075000
0.417365 0.160575 0.075000
0.367579 0.119097 0.131976
0.417314 0.119193 0.131755
0.366456 0.162901 0.131734
0.416232 0.163346 0.131593
0.367254 0.119266 0.181358
0.416974 0.119337 0.181219
0.366128 0.163147 0.181223
0.415883 0.163578 0.181122
0.363460 0.121580 0.238845
0.413317 0.121649 0.238456
0.362524 0.165520 0.238349
0.412378 0.165851 0.238079
0.363085 0.121755 0.288012
0.412888 0.121831 0.287740
0.362169 0.165736 0.287701
0.411983 0.166072 0.287488
0.354257 0.120623 0.354257
0.402945 0.120486 0.353825
0.353491 0.164649 0.353491
0.402519 0.164890 0.353167
0.353825 0.120486 0.402945
0.402623 0.120631 0.402623
0.353167 0.164890 0.402519
0.402249 0.165085 0.402249
0.366190 0.205648 0.025000
0.415811 0.206402 0.025000
0.358604 0.252276 0.025000
0.406555 0.253084 0.025000
0.366190 0.205648 0.075000
0.415811 0.206402 0.075000
0.358604 0.252276 0.075000
0.406555 0.253084 0.075000
0.365267 0.208842 0.131497
0.414950 0.209597 0.131414
0.359778 0.256164 0.130920
0.407876 0.257058 0.130803
0.364910 0.209148 0.181051
0.414556 0.209884 0.180971
0.359637 0.256513 0.180398
0.407694 0.257402 0.180184
0.361551 0.211627 0.237852
0.411253 0.212107 0.237638
0.357814 0.259258 0.236579
0.406116 0.259782 0.236270
0.361173 0.211891 0.287322
0.410850 0.212369 0.287105
0.357695 0.259570 0.285904
0.405960 0.260089 0.285456
0.352840 0.211038 0.352840
0.402068 0.211367 0.352575
0.351004 0.259124 0.351004
0.399713 0.259606 0.350783
0.352575 0.211367 0.402068
0.401799 0.211731 0.401799
0.350783 0.259606 0.399713
0.399405 0.259920 0.399405

CELL_TYPES 512
1
1
1
1
1
1
1
1
1
1
1
1
1
1
1
1
1
1
1
1
1
1
1
1
1
1
1
1
1
1
1
1
1
1
1
1
1
1
1
1
1
1
1
1
1
1
1
1
1
1
1
1
1
1
1
1
1
1
1
1
1
1
1
1
1
1
1
1
1
1
1
1
1
1
1
1
1
1
1
1
1
1
1
1
1
1
1
1
1
1
1
1
1
1
1
1
1
1
1
1
1
1
1
1
1
1
1
1
1
1
1
1
1
1
1
1
1
1
1
1
1
1
1
1
1
1
1
1
1
1
1
1
1
1
1
1
1
1
1
1
1
1
1
1
1
1
1
1
1
1
1
1
1
1
1
1
1
1
1
1
1
1
1
1
1
1
1
1
1
1
1
1
1
1
1
1
1
1
1
1
1
1
1
1
1
1
1
1
1
1
1
1
1
1
1
1
1
1
1
1
1
1
1
1
1
1
1
1
1
1
1
1
1
1
1
1
1
1
1
1
1
1
1
1
1
1
1
1
1
1
1
1
1
1
1
1
1
1
1
1
1
1
1
1
1
1
1
1
1
1
1
1
1
1
1
1
1
1
1
1
1
1
1
1
1
1
1
1
1
1
1
1
1
1
1
1
1
1
1
1
1
1
1
1
1
1
1
1
1
1
1
1
1
1
1
1
1
1
1
1
1
1
1
1
1
1
1
1
1
1
1
1
1
1
1
1
1
1
1
1
1
1
1
1
1
1
1
1
1
1
1
1
1
1
1
1
1
1
1
1
1
1
1
1
1
1
1
1
1
1
1
1
1
1
1
1
1
1
1
1
1
1
1
1
1
1
1
1
1
1
1
1
1
1
1
1
1
1
1
1
1
1
1
1
1
1
1
1
1
1
1
1
1
1
1
1
1
1
1
1
1
1
1
1
1
1
1
1
1
1
1
1
1
1
1
1
1
1
1
1
1
1
1
1
1
1
1
1
1
1
1
1
1
1
1
1
1
1
1
1
1
1
1
1
1
1
1
1
1
1
1
1
1
1
1
1
1
1
1
1
1
1
1
1
1
1
1
1
1
1
1
1
1
1
1
1
1
1
1
1
1
1
1
1
1
1
1
1
1
1
1
1
1
1
1
1
1
1
1
1
1
1
1
1
1
1
1
1
1
1
1
1

POINT_DATA 512
SCALARS radius float
LOOKUP_TABLE default
0.5
0.5
0.5
0.5
0.5
0.5
0.5
0.5
0.5
0.5
0.5
0.5
0.5
0.5
0.5
0.5
0.5
0.5
0.5
0.5
0.5
0.5
0.5
0.5
0.5
0.5
0.5
0.5
0.5
0.5
0.5
0.5
0.5
0.5
0.5
0.5
0.5
0.5
0.5
0.5
0.5
0.5
0.5
0.5
0.5
0.5
0.5
0.5
0.5
0.5
0.5
0.5
0.5
0.5
0.5
0.5
0.5
0.5
0.5
0.5
0.5
0.5
0.5
0.5
0.5
0.5
0.5
0.5
0.5
0.5
0.5
0.5
0.5
0.5
0.5
0.5
0.5
0.5
0.5
0.5
0.5
0.5
0.5
0.5
0.5
0.5
0.5
0.5
0.5
0.5
0.5
0.5
0.5
0.5
0.5
0.5
0.5
0.5
0.5
0.5
0.5
0.5
0.5
0.5
0.5
0.5
0.5
0.5
0.5
0.5
0.5
0.5
0.5
0.5
0.5
0.5
0.5
0.5
0.5
0.5
0.5
0.5
0.5
0.5
0.5
0.5
0.5
0.5
0.5
0.5
0.5
0.5
0.5
0.5
0.5
0.5
0.5
0.5
0.5
0.5
0.5
0.5
0.5
0.5
0.5
0.5
0.5
0.5
0.5
0.5
0.5
0.5
0.5
0.5
0.5
0.5
0.5
0.5
0.5
0.5
0.5
0.5
0.5
0.5
0.5
0.5
0.5
0.5
0.5
0.5
0.5
0.5
0.5
0.5
0.5
0.5
0.5
0.5
0.5
0.5
0.5
0.5
0.5
0.5
0.5
0.5
0.5
0.5
0.5
0.5
0.5
0.5
0.5
0.5
0.5
0.5
0.5
0.5
0.5
0.5
0.5
0.5
0.5
0.5
0.5
0.5
0.5
0.5
0.5
0.5
0.5
0.5
0.5
0.5
0.5
0.5
0.5
0.5
0.5
0.5
0.5
0.5
0.5
0.5
0.5
0.5
0.5
0.5
0.5
0.5
0.5
0.5
0.5
0.5
0.5
0.5
0.5
0.5
0.5
0.5
0.5
0.5
0.5
0.5
0.5
0.5
0.5
0.5
0.5
0.5
0.5
0.5
0.5
0.5
0.5
0.5
0.5
0.5
0.5
0.5
0.5
0.5
0.5
0.5
0.5
0.5
0.5
0.5
0.5
0.5
0.5
0.5
0.5
0.5
0.5
0.5
0.5
0.5
0.5
0.5
0.5
0.5
0.5
0.5
0.5
0.5
0.5
0.5
0.5
0.5
0.5
0.5
0.5
0.5
0.5
0.5
0.5
0.5
0.5
0.5
0.5
0.5
0.5
0.5
0.5
0.5
0.5
0.5
0.5
0.5
0.5
0.5
0.5
0.5
0.5
0.5
0.5
0.5
0.5
0.5
0.5
0.5
0.5
0.5
0.5
0.5
0.5
0.5
0.5
0.5
0.5
0.5
0.5
0.5
0.5
0.5
0.5
0.5
0.5
0.5
0.5
0.5
0.5
0.5
0.5
0.5
0.5
0.5
0.5
0.5
0.5
0.5
0.5
0.5
0.5
0.5
0.5
0.5
0.5
0.5
0.5
0.5
0.5
0.5
0.5
0.5
0.5
0.5
0.5
0.5
0.5
0.5
0.5
0.5
0.5
0.5
0.5
0.5
0.5
0.5
0.5
0.5
0.5
0.5
0.5
0.5
0.5
0.5
0.5
0.5
0.5
0.5
0.5
0.5
0.5
0.5
0.5
0.5
0.5
0.5
0.5
0.5
0.5
0.5
0.5
0.5
0.5
0.5
0.5
0.5
0.5
0.5
0.5
0.5
0.5
0.5
0.5
0.5
0.5
0.5
0.5
0.5
0.5
0.5
0.5
0.5
0.5
0.5
0.5
0.5
0.5
0.5
0.5
0.5
0.5
0.5
0.5
0.5
0.5
0.5
0.5
0.5
0.5
0.5
0.5
0.5
0.5
0.5
0.5
0.5
0.5
0.5
0.5
0.5
0.5
0.5
0.5
0.5
0.5
0.5
0.5
0.5
0.5
0.5
0.5
0.5
0.5
0.5
0.5
0.5
0.5
0.5
0.5
0.5
0.5
0.5
0.5
0.5
0.5
0.5
0.5
0.5
0.5
0.5
0.5
0.5
0.5
0.5
0.5
0.5
0.5
0.5
0.5
0.5
0.5
0.5
0.5
0.5
0.5
0.5
0.5
0.5
0.5
0.5
0.5
0.5
0.5
0.5
0.5
0.5
0.5
0.5
