# vtk DataFile Version 2.0
Title Data
ASCII
DATASET UNSTRUCTURED_GRID
POINTS 384 float
0.021596 0.500939 0.021596
0.071576 0.500842 0.021520
0.025589 0.549991 0.025589
0.075532 0.549847 0.025721
0.021520 0.500842 0.071576
0.071500 0.500717 0.071500
0.025721 0.549847 0.075532
0.075653 0.549670 0.075653
0.020975 0.487082 0.120512
0.070123 0.487172 0.120930
0.026502 0.510426 0.125902
0.076603 0.510673 0.125776
0.020884 0.487157 0.169699
0.070186 0.492039 0.170601
0.027369 0.509339 0.174847
0.078034 0.512012 0.174671
0.013396 0.464071 0.209628
0.063323 0.463612 0.210304
0.034298 0.499465 0.229987
0.086398 0.498813 0.227818
0.011372 0.465952 0.258537
0.060989 0.469442 0.259057
0.030925 0.497699 0.285469
0.089096 0.498233 0.280834
0.014213 0.453772 0.306370
0.066738 0.453684 0.305822
0.039956 0.483219 0.329795
0.094859 0.489034 0.325548
0.018163 0.453813 0.359805
0.068025 0.454844 0.356764
0.035108 0.494013 0.403448
0.085470 0.497234 0.406030
0.017741 0.597699 0.017741
0.067694 0.597423 0.017420
0.019422 0.646886 0.019422
0.068954 0.646596 0.019214
0.017420 0.597423 0.067694
0.067374 0.597105 0.067374
0.019214 0.646596 0.068954
0.068724 0.646260 0.068724
0.018739 0.581001 0.118505
0.068716 0.578918 0.118330
0.020386 0.645305 0.118114
0.069983 0.645028 0.117845
0.017977 0.578781 0.168189
0.067948 0.575992 0.167987
0.019563 0.645459 0.167230
0.069127 0.645093 0.166919
0.019761 0.537873 0.220809
0.068853 0.533458 0.221060
0.021929 0.634828 0.215378
0.071544 0.634334 0.215009
0.017315 0.527171 0.267101
0.065500 0.519040 0.265977
0.020646 0.634810 0.264759
0.070189 0.633838 0.264340
0.013190 0.508295 0.312409
0.064806 0.509764 0.312831
0.023542 0.612144 0.308701
0.073333 0.611633 0.308444
0.010005 0.499712 0.362356
0.064259 0.499511 0.363819
0.022970 0.604644 0.358863
0.072705 0.603531 0.358499
0.020107 0.694687 0.020107
0.069873 0.694250 0.019968
0.018345 0.742060 0.018345
0.067508 0.741420 0.018001
0.019968 0.694250 0.069873
0.069739 0.693737 0.069739
0.018001 0.741420 0.067508
0.067107 0.740656 0.067107
0.020971 0.692467 0.119510
0.070826 0.692007 0.119399
0.019059 0.737423 0.115584
0.068245 0.736575 0.115058
0.020553 0.692478 0.169213
0.070438 0.691849 0.169131
0.017759 0.737128 0.163707
0.066815 0.735913 0.163049
0.022466 0.682363 0.218119
0.072291 0.681751 0.218070
0.020708 0.726062 0.209711
0.070030 0.725018 0.208899
0.022210 0.682183 0.267829
0.072087 0.680932 0.267783
0.017633 0.724958 0.257669
0.066686 0.722599 0.256619
0.023720 0.661547 0.312259
0.073535 0.661016 0.312330
0.023262 0.707253 0.301771
0.072968 0.706606 0.301213
0.023601 0.653964 0.362896
0.073370 0.653032 0.362774
0.021594 0.699955 0.350928
0.071205 0.699914 0.350424
0.120512 0.487082 0.020975
0.169699 0.487157 0.020884
0.125902 0.510426 0.026502
0.174847 0.509339 0.027369
0.120930 0.487172 0.070123
0.170601 0.492039 0.070186
0.125776 0.510673 0.076603
0.174671 0.512012 0.078034
0.114978 0.472926 0.114978
0.164262 0.473270 0.114461
0.130413 0.499120 0.130413
0.183791 0.499305 0.128698
0.114461 0.473270 0.164262
0.163839 0.477869 0.163839
0.128698 0.499305 0.183791
0.182892 0.499788 0.182892
0.113102 0.461293 0.210824
0.162430 0.462965 0.210464
0.134616 0.496520 0.231670
0.189649 0.496830 0.229612
0.113008 0.462669 0.259356
0.162083 0.467514 0.259108
0.134029 0.495027 0.289302
0.190847 0.498173 0.284261
0.116056 0.451220 0.306900
0.166689 0.454818 0.306158
0.140415 0.482317 0.333233
0.192740 0.486945 0.331995
0.116888 0.452982 0.361188
0.166886 0.453589 0.358254
0.135773 0.492749 0.405017
0.186845 0.497096 0.405839
0.118505 0.581001 0.018739
0.168189 0.578781 0.017977
0.118114 0.645305 0.020386
0.167230 0.645459 0.019563
0.118330 0.578918 0.068716
0.167987 0.575992 0.067948
0.117845 0.645028 0.069983
0.166919 0.645093 0.069127
0.119036 0.559885 0.119036
0.168956 0.555031 0.118635
0.119035 0.641456 0.119035
0.168264 0.641378 0.118105
0.118635 0.555031 0.168956
0.168319 0.547353 0.168319
0.118105 0.641378 0.168264
0.167273 0.641082 0.167273
0.117794 0.530542 0.217445
0.166491 0.525963 0.216741
0.120626 0.632092 0.216405
0.169916 0.631653 0.215323
0.114515 0.520765 0.265251
0.162598 0.511491 0.262377
0.119147 0.631834 0.265835
0.168304 0.630426 0.264676
0.112851 0.502979 0.309357
0.164071 0.503361 0.307309
0.122806 0.609516 0.309870
0.172468 0.608865 0.309002
0.112209 0.499928 0.365865
0.163178 0.499460 0.365286
0.122123 0.602552 0.360225
0.171806 0.600756 0.359226
0.119510 0.692467 0.020971
0.169213 0.692478 0.020553
0.115584 0.737423 0.019059
0.163707 0.737128 0.017759
0.119399 0.692007 0.070826
0.169131 0.691849 0.070438
0.115058 0.736575 0.068245
0.163049 0.735913 0.066815
0.120419 0.688743 0.120419
0.170240 0.688466 0.120075
0.116325 0.732749 0.116325
0.164478 0.731874 0.114627
0.120075 0.688466 0.170240
0.169976 0.687841 0.169976
0.114627 0.731874 0.164478
0.162493 0.730134 0.162493
0.121765 0.679683 0.219051
0.171458 0.679093 0.218824
0.118518 0.723405 0.211001
0.167042 0.722076 0.208783
0.121613 0.679268 0.268717
0.171382 0.677455 0.268494
0.114843 0.721851 0.259068
0.162882 0.717984 0.256441
0.123022 0.659060 0.313137
0.172674 0.658388 0.313054
0.122240 0.705246 0.303651
0.171725 0.704321 0.301880
0.122782 0.652251 0.363816
0.172270 0.650936 0.363314
0.120321 0.699766 0.353114
0.169559 0.699356 0.351436
0.209628 0.464071 0.013396
0.258537 0.465952 0.011372
0.229987 0.499465 0.034298
0.285469 0.497699 0.030925
0.210304 0.463612 0.063323
0.259057 0.469442 0.060989
0.227818 0.498813 0.086398
0.280834 0.498233 0.089096
0.210824 0.461293 0.113102
0.259356 0.462669 0.113008
0.231670 0.496520 0.134616
0.289302 0.495027 0.134029
0.210464 0.462965 0.162430
0.259108 0.467514 0.162083
0.229612 0.496830 0.189649
0.284261 0.498173 0.190847
0.211330 0.457108 0.211330
0.261436 0.459492 0.210781
0.234251 0.488861 0.234251
0.289888 0.488886 0.235082
0.210781 0.459492 0.261436
0.260999 0.459711 0.260999
0.235082 0.488886 0.289888
0.292791 0.495857 0.292791
0.215544 0.449969 0.309641
0.266156 0.452837 0.308674
0.239788 0.482064 0.337032
0.290753 0.483510 0.338325
0.215169 0.451916 0.363890
0.265053 0.451201 0.361514
0.235936 0.490354 0.406955
0.288631 0.495541 0.406363
0.220809 0.537873 0.019761
0.267101 0.527171 0.017315
0.215378 0.634828 0.021929
0.264759 0.634810 0.020646
0.221060 0.533458 0.068853
0.265977 0.519040 0.065500
0.215009 0.634334 0.071544
0.264340 0.633838 0.070189
0.217445 0.530542 0.117794
0.265251 0.520765 0.114515
0.216405 0.632092 0.120626
0.265835 0.631834 0.119147
0.216741 0.525963 0.166491
0.262377 0.511491 0.162598
0.215323 0.631653 0.169916
0.264676 0.630426 0.168304
0.213439 0.515862 0.213439
0.263303 0.507999 0.209568
0.218238 0.623794 0.218238
0.267812 0.622951 0.216566
0.209568 0.507999 0.263303
0.260351 0.499639 0.260351
0.216566 0.622951 0.267812
0.265992 0.620164 0.265992
0.209197 0.499886 0.305430
0.261704 0.499850 0.306384
0.221457 0.602298 0.312759
0.271379 0.600949 0.311435
0.210919 0.499669 0.369293
0.261466 0.499951 0.368481
0.220424 0.597526 0.363460
0.269920 0.594900 0.361854
0.218119 0.682363 0.022466
0.267829 0.682183 0.022210
0.209711 0.726062 0.020708
0.257669 0.724958 0.017633
0.218070 0.681751 0.072291
0.267783 0.680932 0.072087
0.208899 0.725018 0.070030
0.256619 0.722599 0.066686
0.219051 0.679683 0.121765
0.268717 0.679268 0.121613
0.211001 0.723405 0.118518
0.259068 0.721851 0.114843
0.218824 0.679093 0.171458
0.268494 0.677455 0.171382
0.208783 0.722076 0.167042
0.256441 0.717984 0.162882
0.220181 0.671962 0.220181
0.269641 0.670947 0.220068
0.214438 0.716415 0.214438
0.263114 0.714294 0.210314
0.220068 0.670947 0.269641
0.269201 0.667307 0.269201
0.210314 0.714294 0.263114
0.258681 0.708073 0.258681
0.221551 0.652207 0.314981
0.270992 0.651196 0.314867
0.220149 0.699803 0.308450
0.269409 0.699878 0.305238
0.221143 0.647606 0.365537
0.270375 0.645346 0.364630
0.218030 0.698535 0.358488
0.267211 0.697430 0.355270
0.306370 0.453772 0.014213
0.359805 0.453813 0.018163
0.329795 0.483220 0.039956
0.403448 0.494013 0.035108
0.305822 0.453684 0.066738
0.356764 0.454844 0.068025
0.325548 0.489034 0.094859
0.406030 0.497234 0.085470
0.306900 0.451220 0.116056
0.361188 0.452982 0.116888
0.333233 0.482317 0.140415
0.405017 0.492749 0.135773
0.306158 0.454818 0.166689
0.358254 0.453589 0.166886
0.331996 0.486945 0.192740
0.405839 0.497096 0.186845
0.309641 0.449969 0.215544
0.363890 0.451916 0.215169
0.337032 0.482064 0.239788
0.406955 0.490353 0.235936
0.308674 0.452837 0.266156
0.361514 0.451201 0.265053
0.338325 0.483510 0.290753
0.406362 0.495541 0.288631
0.314545 0.448070 0.314545
0.367433 0.450950 0.313594
0.339568 0.481547 0.339568
0.406053 0.487182 0.338181
0.313594 0.450950 0.367433
0.366331 0.450424 0.366331
0.338181 0.487182 0.406053
0.400050 0.494167 0.400050
0.312409 0.508295 0.013190
0.362356 0.499712 0.010005
0.308701 0.612144 0.023542
0.358863 0.604644 0.022970
0.312831 0.509764 0.064806
0.363819 0.499511 0.064259
0.308444 0.611633 0.073333
0.358499 0.603531 0.072705
0.309357 0.502979 0.112851
0.365865 0.499928 0.112209
0.309870 0.609516 0.122806
0.360225 0.602552 0.122122
0.307309 0.503361 0.164071
0.365286 0.499460 0.163178
0.309002 0.608865 0.172468
0.359226 0.600756 0.171806
0.305430 0.499886 0.209197
0.369293 0.499669 0.210919
0.312759 0.602298 0.221457
0.363460 0.597526 0.220424
0.306384 0.499850 0.261704
0.368481 0.499952 0.261466
0.311435 0.600949 0.271379
0.361854 0.594900 0.269920
0.307725 0.499839 0.307725
0.373175 0.499535 0.309515
0.317859 0.592373 0.317859
0.368797 0.588907 0.317940
0.309515 0.499535 0.373175
0.369499 0.499715 0.369499
0.317940 0.588907 0.368797
0.367866 0.583689 0.367866
0.312259 0.661547 0.023720
0.362896 0.653964 0.023601
0.301771 0.707253 0.023262
0.350928 0.699955 0.021594
0.312330 0.661016 0.073535
0.362774 0.653031 0.073370
0.301213 0.706606 0.072968
0.350424 0.699914 0.071205
0.313137 0.659060 0.123022
0.363816 0.652251 0.122782
0.303651 0.705246 0.122240
0.353114 0.699766 0.120321
0.313054 0.658388 0.172674
0.363314 0.650936 0.172270
0.301880 0.704321 0.171725
0.351436 0.699356 0.169559
0.314981 0.652207 0.221551
0.365537 0.647606 0.221143
0.308450 0.699803 0.220149
0.358488 0.698535 0.218030
0.314867 0.651196 0.270992
0.364630 0.645346 0.270375
0.305238 0.699878 0.269409
0.355270 0.697430 0.267211
0.318657 0.641683 0.318657
0.368931 0.638419 0.318356
0.316181 0.696770 0.316181
0.366513 0.695597 0.314749
0.318356 0.638419 0.368931
0.368306 0.633560 0.368306
0.314749 0.695597 0.366513
0.364676 0.693545 0.364676

CELL_TYPES 384
1
1
1
1
1
1
1
1
1
1
1
1
1
1
1
1
1
1
1
1
1
1
1
1
1
1
1
1
1
1
1
1
1
1
1
1
1
1
1
1
1
1
1
1
1
1
1
1
1
1
1
1
1
1
1
1
1
1
1
1
1
1
1
1
1
1
1
1
1
1
1
1
1
1
1
1
1
1
1
1
1
1
1
1
1
1
1
1
1
1
1
1
1
1
1
1
1
1
1
1
1
1
1
1
1
1
1
1
1
1
1
1
1
1
1
1
1
1
1
1
1
1
1
1
1
1
1
1
1
1
1
1
1
1
1
1
1
1
1
1
1
1
1
1
1
1
1
1
1
1
1
1
1
1
1
1
1
1
1
1
1
1
1
1
1
1
1
1
1
1
1
1
1
1
1
1
1
1
1
1
1
1
1
1
1
1
1
1
1
1
1
1
1
1
1
1
1
1
1
1
1
1
1
1
1
1
1
1
1
1
1
1
1
1
1
1
1
1
1
1
1
1
1
1
1
1
1
1
1
1
1
1
1
1
1
1
1
1
1
1
1
1
1
1
1
1
1
1
1
1
1
1
1
1
1
1
1
1
1
1
1
1
1
1
1
1
1
1
1
1
1
1
1
1
1
1
1
1
1
1
1
1
1
1
1
1
1
1
1
1
1
1
1
1
1
1
1
1
1
1
1
1
1
1
1
1
1
1
1
1
1
1
1
1
1
1
1
1
1
1
1
1
1
1
1
1
1
1
1
1
1
1
1
1
1
1
1
1
1
1
1
1
1
1
1
1
1
1
1
1
1
1
1
1
1
1
1
1
1
1
1
1
1
1
1
1
1
1
1
1
1
1
1
1
1
1
1
1
1
1
1
1
1
1

POINT_DATA 384
SCALARS radius float
LOOKUP_TABLE default
0.5
0.5
0.5
0.5
0.5
0.5
0.5
0.5
0.5
0.5
0.5
0.5
0.5
0.5
0.5
0.5
0.5
0.5
0.5
0.5
0.5
0.5
0.5
0.5
0.5
0.5
0.5
0.5
0.5
0.5
0.5
0.5
0.5
0.5
0.5
0.5
0.5
0.5
0.5
0.5
0.5
0.5
0.5
0.5
0.5
0.5
0.5
0.5
0.5
0.5
0.5
0.5
0.5
0.5
0.5
0.5
0.5
0.5
0.5
0.5
0.5
0.5
0.5
0.5
0.5
0.5
0.5
0.5
0.5
0.5
0.5
0.5
0.5
0.5
0.5
0.5
0.5
0.5
0.5
0.5
0.5
0.5
0.5
0.5
0.5
0.5
0.5
0.5
0.5
0.5
0.5
0.5
0.5
0.5
0.5
0.5
0.5
0.5
0.5
0.5
0.5
0.5
0.5
0.5
0.5
0.5
0.5
0.5
0.5
0.5
0.5
0.5
0.5
0.5
0.5
0.5
0.5
0.5
0.5
0.5
0.5
0.5
0.5
0.5
0.5
0.5
0.5
0.5
0.5
0.5
0.5
0.5
0.5
0.5
0.5
0.5
0.5
0.5
0.5
0.5
0.5
0.5
0.5
0.5
0.5
0.5
0.5
0.5
0.5
0.5
0.5
0.5
0.5
0.5
0.5
0.5
0.5
0.5
0.5
0.5
0.5
0.5
0.5
0.5
0.5
0.5
0.5
0.5
0.5
0.5
0.5
0.5
0.5
0.5
0.5
0.5
0.5
0.5
0.5
0.5
0.5
0.5
0.5
0.5
0.5
0.5
0.5
0.5
0.5
0.5
0.5
0.5
0.5
0.5
0.5
0.5
0.5
0.5
0.5
0.5
0.5
0.5
0.5
0.5
0.5
0.5
0.5
0.5
0.5
0.5
0.5
0.5
0.5
0.5
0.5
0.5
0.5
0.5
0.5
0.5
0.5
0.5
0.5
0.5
0.5
0.5
0.5
0.5
0.5
0.5
0.5
0.5
0.5
0.5
0.5
0.5
0.5
0.5
0.5
0.5
0.5
0.5
0.5
0.5
0.5
0.5
0.5
0.5
0.5
0.5
0.5
0.5
0.5
0.5
0.5
0.5
0.5
0.5
0.5
0.5
0.5
0.5
0.5
0.5
0.5
0.5
0.5
0.5
0.5
0.5
0.5
0.5
0.5
0.5
0.5
0.5
0.5
0.5
0.5
0.5
0.5
0.5
0.5
0.5
0.5
0.5
0.5
0.5
0.5
0.5
0.5
0.5
0.5
0.5
0.5
0.5
0.5
0.5
0.5
0.5
0.5
0.5
0.5
0.5
0.5
0.5
0.5
0.5
0.5
0.5
0.5
0.5
0.5
0.5
0.5
0.5
0.5
0.5
0.5
0.5
0.5
0.5
0.5
0.5
0.5
0.5
0.5
0.5
0.5
0.5
0.5
0.5
0.5
0.5
0.5
0.5
0.5
0.5
0.5
0.5
0.5
0.5
0.5
0.5
0.5
0.5
0.5
0.5
0.5
0.5
0.5
0.5
0.5
0.5
0.5
0.5
0.5
0.5
0.5
0.5
0.5
0.5
0.5
0.5
0.5
0.5
0.5
0.5
0.5
0.5
0.5
0.5
0.5
0.5
0.5
0.5
0.5
0.5
0.5
0.5
0.5
0.5
0.5
0.5
