# vtk DataFile Version 2.0
Title Data
ASCII
DATASET UNSTRUCTURED_GRID
POINTS 384 float
0.130298 0.097342 0.100280
0.068901 0.080105 0.052022
0.093821 0.120018 0.117321
0.142060 0.160432 0.131944
0.008556 0.083434 0.091752
0.090611 0.079107 0.100529
0.099973 0.198123 0.072076
0.056927 0.125022 0.150018
0.146054 0.042508 0.107978
0.051269 0.077587 0.003958
0.003016 0.059087 0.138712
0.091342 0.097166 0.160048
0.003011 0.099953 0.201780
0.099055 0.099960 0.205574
0.048272 0.050533 0.205953
0.096676 0.156155 0.151551
0.020366 0.043742 0.246116
0.065203 0.059997 0.259897
0.145167 0.100728 0.240730
0.130381 0.142873 0.226876
0.088333 0.087375 0.299513
0.100282 0.100043 0.300937
0.027402 0.061081 0.291945
0.097899 0.057390 0.336238
0.101873 0.098984 0.363014
0.132438 0.117855 0.330690
0.083756 0.098060 0.400089
0.035504 0.071371 0.392140
0.101295 0.092116 0.445332
0.106657 0.189124 0.399872
0.096585 0.099983 0.483057
0.045270 0.122242 0.475579
0.049981 0.050302 0.089210
0.112691 0.099290 0.039136
0.043765 0.152678 0.114130
0.094497 0.164657 0.035719
0.069105 0.118764 0.021714
0.028065 0.137286 0.070331
0.099866 0.100079 0.083983
0.076591 0.132828 0.068217
0.131421 0.114859 0.143966
0.099781 0.143784 0.199867
0.089984 0.164478 0.103185
0.013968 0.105328 0.135726
0.040645 0.085617 0.172866
0.121666 0.066819 0.142975
0.102473 0.111733 0.201006
0.055060 0.082328 0.126661
0.100087 0.092679 0.252541
0.094858 0.198724 0.200012
0.056939 0.169320 0.213262
0.008314 0.152372 0.205177
0.086062 0.118806 0.249398
0.049384 0.102629 0.278600
0.009108 0.090917 0.253412
0.052957 0.095225 0.224335
0.056554 0.098480 0.357069
0.002852 0.126164 0.287016
0.125666 0.130300 0.279363
0.080237 0.124096 0.325287
0.053828 0.096989 0.438952
0.016657 0.147824 0.432809
0.045129 0.117183 0.399037
0.093498 0.131271 0.375648
0.015365 0.249221 0.015392
0.063291 0.185198 0.001971
0.004823 0.320471 0.004816
0.038106 0.239821 0.079498
0.003005 0.186426 0.066189
0.025397 0.099944 0.040084
0.080255 0.263206 0.024969
0.050739 0.182633 0.051256
0.006572 0.269407 0.123028
0.054514 0.199697 0.101730
0.008512 0.328715 0.094277
0.070055 0.293981 0.099876
0.008044 0.164144 0.156949
0.052722 0.123141 0.199316
0.102568 0.351123 0.168229
0.050029 0.193546 0.155205
0.004915 0.287878 0.209995
0.075487 0.233006 0.199998
0.010221 0.344632 0.190234
0.052423 0.289390 0.194518
0.094107 0.164394 0.244475
0.031073 0.132975 0.244317
0.109020 0.329694 0.253495
0.035032 0.199925 0.244539
0.013760 0.194073 0.295802
0.055028 0.164298 0.273080
0.011376 0.298234 0.282854
0.056656 0.275594 0.291908
0.026132 0.099895 0.320852
0.002781 0.099998 0.364999
0.007279 0.213619 0.304819
0.058943 0.178971 0.319470
0.051028 0.103998 0.099944
0.192821 0.075843 0.019916
0.170487 0.080550 0.078728
0.183822 0.159728 0.147379
0.012241 0.054326 0.051418
0.196036 0.047797 0.100549
0.116489 0.052447 0.058186
0.169675 0.153396 0.068991
0.096620 0.040851 0.108339
0.170433 0.043863 0.047628
0.156288 0.046108 0.170159
0.198582 0.055723 0.148514
0.073246 0.050744 0.159584
0.188676 0.075460 0.199941
0.139775 0.065602 0.210773
0.192369 0.182371 0.200070
0.096940 0.046820 0.202335
0.184038 0.102354 0.209481
0.134327 0.049592 0.254689
0.181183 0.072801 0.249093
0.111609 0.044760 0.298317
0.186280 0.083667 0.300092
0.144732 0.071952 0.333989
0.200109 0.100158 0.300539
0.048846 0.052597 0.342345
0.197509 0.054277 0.348608
0.119124 0.064751 0.394613
0.200210 0.069380 0.405624
0.095617 0.178397 0.482360
0.156799 0.057020 0.433073
0.142460 0.298861 0.501691
0.185852 0.099979 0.496030
0.142971 0.071123 0.010463
0.199737 0.114892 0.064851
0.114182 0.195360 0.001506
0.177919 0.187967 0.099960
0.161016 0.110231 0.029720
0.177050 0.125603 0.109302
0.114110 0.141893 0.099732
0.142550 0.114815 0.073117
0.117785 0.199892 0.116669
0.164581 0.083041 0.127835
0.110374 0.247148 0.124180
0.161376 0.213847 0.125291
0.149651 0.098244 0.181168
0.193216 0.103246 0.159180
0.119123 0.199085 0.165527
0.157687 0.143791 0.184996
0.142471 0.185380 0.205686
0.178023 0.146963 0.230874
0.118526 0.250030 0.210090
0.172492 0.221666 0.213288
0.139857 0.084417 0.286784
0.218346 0.145340 0.293433
0.099579 0.203344 0.261062
0.176200 0.113356 0.276501
0.166754 0.146664 0.310959
0.177011 0.074868 0.389206
0.128260 0.186521 0.293200
0.200000 0.194488 0.308850
0.093426 0.168772 0.432698
0.143073 0.099739 0.474561
0.138991 0.099922 0.419967
0.184610 0.139516 0.399451
0.113150 0.297564 0.105127
0.163728 0.197610 0.009934
0.102200 0.370905 0.004024
0.150764 0.309329 0.000212
0.106248 0.237709 0.063135
0.142191 0.155321 0.028442
0.100804 0.309937 0.062019
0.152681 0.229730 0.046206
0.119732 0.361437 0.122579
0.175241 0.276257 0.110093
0.111171 0.396627 0.086595
0.152856 0.299335 0.074824
0.105385 0.282871 0.169269
0.155415 0.231237 0.168912
0.058854 0.259307 0.146520
0.144906 0.297373 0.143235
0.099784 0.340148 0.204361
0.151548 0.292124 0.191982
0.102143 0.428567 0.197142
0.150254 0.372721 0.197686
0.101672 0.264937 0.255592
0.151742 0.197857 0.252101
0.053642 0.266626 0.241889
0.163519 0.289592 0.240010
0.104567 0.225332 0.300003
0.187790 0.267123 0.292305
0.097298 0.337324 0.300005
0.173188 0.352753 0.276295
0.144651 0.104524 0.377359
0.181986 0.099903 0.346010
0.100011 0.286106 0.312495
0.140457 0.281333 0.283392
0.243350 0.069118 0.016292
0.273645 0.086167 0.100000
0.261470 0.125061 0.136790
0.312283 0.065221 0.031892
0.205818 0.099972 0.012260
0.305442 0.096725 0.119173
0.201624 0.099977 0.100872
0.348019 0.094990 0.099960
0.207694 0.045287 0.085706
0.257227 0.051761 0.069787
0.244607 0.054984 0.123736
0.317283 0.061662 0.155099
0.235317 0.062668 0.178926
0.279976 0.043890 0.181111
0.226053 0.107118 0.193472
0.305195 0.129809 0.219769
0.222333 0.048632 0.245845
0.303214 0.073617 0.204315
0.266752 0.054525 0.227287
0.297358 0.084167 0.252197
0.205998 0.092608 0.286064
0.294308 0.098696 0.299863
0.249668 0.107070 0.299906
0.322835 0.150085 0.325393
0.234567 0.078088 0.326194
0.276499 0.054738 0.314863
0.247857 0.063320 0.380815
0.296551 0.058715 0.370791
0.222771 0.098006 0.466063
0.270035 0.099748 0.470046
0.228424 0.099301 0.515291
0.299977 0.099634 0.507395
0.237874 0.112008 0.094800
0.291376 0.131418 0.098144
0.220372 0.145900 0.122528
0.273499 0.092240 0.045714
0.216065 0.188671 0.080939
0.221388 0.084038 0.058993
0.199336 0.170156 0.033282
0.258615 0.159788 0.072379
0.223912 0.151672 0.173014
0.272906 0.083234 0.153028
0.216284 0.199816 0.121908
0.262787 0.171420 0.120371
0.224329 0.097148 0.144510
0.271798 0.096086 0.200016
0.201663 0.199885 0.165671
0.270688 0.140675 0.183913
0.221818 0.089976 0.216746
0.258431 0.120873 0.227551
0.229133 0.159875 0.221719
0.266873 0.188775 0.209254
0.215343 0.122185 0.250003
0.286973 0.129109 0.266079
0.199979 0.188987 0.259471
0.248932 0.087147 0.258987
0.212801 0.098493 0.366709
0.276792 0.095204 0.345830
0.241064 0.124690 0.342479
0.276482 0.155056 0.307333
0.181616 0.099932 0.441795
0.283261 0.060832 0.442855
0.248347 0.095081 0.425513
0.288599 0.098285 0.400041
0.203960 0.286943 0.011065
0.242011 0.156299 0.002696
0.196868 0.361578 0.012068
0.252014 0.316807 0.111160
0.195281 0.252664 0.070692
0.239602 0.122894 0.038130
0.199409 0.299813 0.056740
0.242060 0.195387 0.039107
0.202198 0.364571 0.100034
0.249937 0.260093 0.106956
0.198917 0.427423 0.103038
0.243071 0.245412 0.056933
0.193268 0.291876 0.152834
0.249340 0.194452 0.162330
0.197884 0.373995 0.151868
0.241201 0.288251 0.163449
0.202820 0.324057 0.199684
0.249449 0.226453 0.199973
0.281506 0.309936 0.294480
0.268754 0.262547 0.239318
0.206108 0.205984 0.246063
0.253831 0.165806 0.264246
0.221795 0.276525 0.254219
0.199984 0.381409 0.202430
0.210989 0.162628 0.349313
0.257014 0.108451 0.389497
0.216173 0.216851 0.339430
0.152102 0.199851 0.330338
0.210259 0.111640 0.401111
0.290116 0.176905 0.400000
0.203670 0.309418 0.300083
0.175004 0.189204 0.371619
0.358609 0.055705 0.128017
0.449332 0.059609 0.074367
0.423330 0.099875 0.110375
0.481284 0.099734 0.080376
0.314595 0.055466 0.092957
0.428685 0.099927 0.082647
0.399054 0.066111 0.063326
0.480878 0.099262 0.030761
0.360078 0.053225 0.036374
0.504228 0.274274 0.084465
0.390275 0.099365 0.101749
0.511393 0.099573 0.118908
0.349759 0.060447 0.198163
0.445832 0.055873 0.169270
0.448575 0.076262 0.227197
0.510270 0.294250 0.200029
0.349816 0.054034 0.247316
0.490486 0.099901 0.214411
0.405610 0.055919 0.257239
0.506207 0.298065 0.249718
0.321601 0.059630 0.288216
0.400096 0.099769 0.303228
0.402736 0.050334 0.315906
0.499717 0.099834 0.302389
0.322429 0.091385 0.327448
0.477221 0.060762 0.328975
0.394699 0.056186 0.372758
0.488309 0.099813 0.360765
0.342337 0.097578 0.487312
0.402443 0.249240 0.410900
0.383259 0.099948 0.459533
0.450497 0.292790 0.405014
0.354208 0.099769 0.053178
0.432045 0.099600 0.037971
0.299989 0.196430 0.097366
0.386387 0.099885 0.018726
0.325582 0.106257 0.013716
0.400215 0.101926 0.001186
0.310464 0.099900 0.071386
0.399926 0.112675 0.067026
0.306145 0.127509 0.153374
0.464139 0.094047 0.126115
0.305213 0.180316 0.142487
0.420331 0.092853 0.147691
0.381926 0.080718 0.167398
0.491738 0.099861 0.165358
0.308468 0.190695 0.199944
0.393593 0.153526 0.170569
0.345048 0.145258 0.175501
0.434793 0.099870 0.188341
0.338493 0.099743 0.233934
0.395451 0.067000 0.210259
0.370673 0.069695 0.289002
0.478807 0.089996 0.261092
0.336916 0.103555 0.283164
0.382367 0.131473 0.302815
0.299995 0.112545 0.364906
0.450853 0.099521 0.311682
0.345510 0.061413 0.373751
0.445646 0.094131 0.386031
0.314065 0.099837 0.446682
0.412546 0.296735 0.454049
0.358323 0.071574 0.427184
0.400658 0.299650 0.404696
0.297627 0.191953 0.003550
0.338396 0.176851 0.109004
0.283401 0.289829 0.009950
0.302859 0.217207 0.006362
0.285310 0.141085 0.034469
0.364886 0.126164 0.099992
0.292293 0.262443 0.056941
0.317408 0.175356 0.052918
0.299873 0.258546 0.106120
0.345951 0.099997 0.146566
0.299200 0.359413 0.098463
0.325171 0.256472 0.095752
0.295620 0.199881 0.169062
0.322799 0.100011 0.187572
0.283048 0.345836 0.175404
0.287773 0.284697 0.146902
0.368134 0.108971 0.200071
0.408001 0.099828 0.224730
0.313432 0.191970 0.248330
0.298870 0.282362 0.200020
0.380380 0.099973 0.255729
0.430778 0.099809 0.266819
0.316941 0.273407 0.185888
0.380841 0.211369 0.196181
0.369186 0.079610 0.334858
0.411104 0.099836 0.351286
0.201672 0.282215 0.392377
0.349281 0.108094 0.364110
0.330242 0.099674 0.400087
0.385511 0.099771 0.395624
0.277064 0.218712 0.392253
0.389249 0.166010 0.391447

CELL_TYPES 384
1
1
1
1
1
1
1
1
1
1
1
1
1
1
1
1
1
1
1
1
1
1
1
1
1
1
1
1
1
1
1
1
1
1
1
1
1
1
1
1
1
1
1
1
1
1
1
1
1
1
1
1
1
1
1
1
1
1
1
1
1
1
1
1
1
1
1
1
1
1
1
1
1
1
1
1
1
1
1
1
1
1
1
1
1
1
1
1
1
1
1
1
1
1
1
1
1
1
1
1
1
1
1
1
1
1
1
1
1
1
1
1
1
1
1
1
1
1
1
1
1
1
1
1
1
1
1
1
1
1
1
1
1
1
1
1
1
1
1
1
1
1
1
1
1
1
1
1
1
1
1
1
1
1
1
1
1
1
1
1
1
1
1
1
1
1
1
1
1
1
1
1
1
1
1
1
1
1
1
1
1
1
1
1
1
1
1
1
1
1
1
1
1
1
1
1
1
1
1
1
1
1
1
1
1
1
1
1
1
1
1
1
1
1
1
1
1
1
1
1
1
1
1
1
1
1
1
1
1
1
1
1
1
1
1
1
1
1
1
1
1
1
1
1
1
1
1
1
1
1
1
1
1
1
1
1
1
1
1
1
1
1
1
1
1
1
1
1
1
1
1
1
1
1
1
1
1
1
1
1
1
1
1
1
1
1
1
1
1
1
1
1
1
1
1
1
1
1
1
1
1
1
1
1
1
1
1
1
1
1
1
1
1
1
1
1
1
1
1
1
1
1
1
1
1
1
1
1
1
1
1
1
1
1
1
1
1
1
1
1
1
1
1
1
1
1
1
1
1
1
1
1
1
1
1
1
1
1
1
1
1
1
1
1
1
1
1
1
1
1
1
1
1
1
1
1
1
1
1
1
1
1
1
1

POINT_DATA 384
SCALARS radius float
LOOKUP_TABLE default
0.5
0.5
0.5
0.5
0.5
0.5
0.5
0.5
0.5
0.5
0.5
0.5
0.5
0.5
0.5
0.5
0.5
0.5
0.5
0.5
0.5
0.5
0.5
0.5
0.5
0.5
0.5
0.5
0.5
0.5
0.5
0.5
0.5
0.5
0.5
0.5
0.5
0.5
0.5
0.5
0.5
0.5
0.5
0.5
0.5
0.5
0.5
0.5
0.5
0.5
0.5
0.5
0.5
0.5
0.5
0.5
0.5
0.5
0.5
0.5
0.5
0.5
0.5
0.5
0.5
0.5
0.5
0.5
0.5
0.5
0.5
0.5
0.5
0.5
0.5
0.5
0.5
0.5
0.5
0.5
0.5
0.5
0.5
0.5
0.5
0.5
0.5
0.5
0.5
0.5
0.5
0.5
0.5
0.5
0.5
0.5
0.5
0.5
0.5
0.5
0.5
0.5
0.5
0.5
0.5
0.5
0.5
0.5
0.5
0.5
0.5
0.5
0.5
0.5
0.5
0.5
0.5
0.5
0.5
0.5
0.5
0.5
0.5
0.5
0.5
0.5
0.5
0.5
0.5
0.5
0.5
0.5
0.5
0.5
0.5
0.5
0.5
0.5
0.5
0.5
0.5
0.5
0.5
0.5
0.5
0.5
0.5
0.5
0.5
0.5
0.5
0.5
0.5
0.5
0.5
0.5
0.5
0.5
0.5
0.5
0.5
0.5
0.5
0.5
0.5
0.5
0.5
0.5
0.5
0.5
0.5
0.5
0.5
0.5
0.5
0.5
0.5
0.5
0.5
0.5
0.5
0.5
0.5
0.5
0.5
0.5
0.5
0.5
0.5
0.5
0.5
0.5
0.5
0.5
0.5
0.5
0.5
0.5
0.5
0.5
0.5
0.5
0.5
0.5
0.5
0.5
0.5
0.5
0.5
0.5
0.5
0.5
0.5
0.5
0.5
0.5
0.5
0.5
0.5
0.5
0.5
0.5
0.5
0.5
0.5
0.5
0.5
0.5
0.5
0.5
0.5
0.5
0.5
0.5
0.5
0.5
0.5
0.5
0.5
0.5
0.5
0.5
0.5
0.5
0.5
0.5
0.5
0.5
0.5
0.5
0.5
0.5
0.5
0.5
0.5
0.5
0.5
0.5
0.5
0.5
0.5
0.5
0.5
0.5
0.5
0.5
0.5
0.5
0.5
0.5
0.5
0.5
0.5
0.5
0.5
0.5
0.5
0.5
0.5
0.5
0.5
0.5
0.5
0.5
0.5
0.5
0.5
0.5
0.5
0.5
0.5
0.5
0.5
0.5
0.5
0.5
0.5
0.5
0.5
0.5
0.5
0.5
0.5
0.5
0.5
0.5
0.5
0.5
0.5
0.5
0.5
0.5
0.5
0.5
0.5
0.5
0.5
0.5
0.5
0.5
0.5
0.5
0.5
0.5
0.5
0.5
0.5
0.5
0.5
0.5
0.5
0.5
0.5
0.5
0.5
0.5
0.5
0.5
0.5
0.5
0.5
0.5
0.5
0.5
0.5
0.5
0.5
0.5
0.5
0.5
0.5
0.5
0.5
0.5
0.5
0.5
0.5
0.5
0.5
0.5
0.5
0.5
0.5
0.5
0.5
0.5
0.5
0.5
0.5
0.5
0.5
0.5
0.5
0.5
0.5
0.5
0.5
0.5
0.5
0.5
0.5
0.5
0.5
0.5
