# vtk DataFile Version 2.0
Title Data
ASCII
DATASET UNSTRUCTURED_GRID
POINTS 360 float
0.566766 0.099823 0.299988
0.630396 0.016988 0.501119
0.139795 0.099945 0.299860
0.248923 0.007387 0.245873
0.751188 0.099932 0.497209
0.777275 0.184659 0.589379
0.230791 0.085354 0.171218
0.294691 0.000278 0.380519
0.299442 0.099988 0.637350
0.660648 0.001804 0.617125
0.059741 0.001553 0.300767
0.530737 0.099991 0.508354
0.199460 0.099823 0.399331
0.196580 0.061509 0.569552
0.476166 0.052148 0.375710
0.599915 0.015195 0.699895
0.544114 0.071833 0.769471
0.726045 0.052936 0.704482
0.266372 0.099945 0.298674
0.399895 0.023331 0.490499
0.236678 0.011245 0.298966
0.193398 0.049024 0.762584
0.071465 0.049751 0.300895
0.300012 0.051932 0.648435
0.398059 0.051996 0.374348
0.366978 0.101778 0.299886
0.300148 0.006869 0.002507
0.459413 0.050835 0.299736
0.359586 0.099960 0.236742
0.484929 0.099179 0.310969
0.191102 0.013455 0.285335
0.600296 0.100251 0.323276
0.300798 0.099817 0.262451
0.617952 0.040745 0.368837
0.547793 0.036903 0.275435
0.271129 0.099481 0.634730
0.345340 0.099919 0.580044
0.629241 0.099989 0.788918
0.540396 0.069718 0.374335
0.347403 0.060251 0.546760
0.747975 0.157739 0.767718
0.700032 0.160211 0.725560
0.227211 0.099573 0.699790
0.329185 0.099944 0.635145
0.170031 0.053697 0.299895
0.320569 0.099879 0.499593
0.577920 0.049623 0.585864
0.299437 0.011207 0.693928
0.399983 0.099904 0.210845
0.529764 0.099993 0.330257
0.317546 0.100086 0.299690
0.317641 0.099836 0.219659
0.405234 0.023270 0.413445
0.607938 0.066956 0.492481
0.250174 0.056255 0.283925
0.575320 0.099932 0.358919
0.647278 0.108221 0.614755
0.195477 0.077563 0.331410
0.210358 0.096739 0.295583
0.151109 0.099942 0.354216
0.449116 0.099972 0.480495
0.436484 0.054333 0.494190
0.772673 0.126535 0.742731
0.532061 0.023917 0.346738
0.235122 0.099847 0.611694
0.673123 0.021145 0.732283
0.548879 0.020065 0.549172
0.236333 0.018970 0.564438
0.178275 0.099563 0.478503
0.477746 0.099934 0.531091
0.099979 0.099885 0.691487
0.063410 0.099765 0.300055
0.015587 0.099951 0.300569
0.299827 0.093912 0.173432
0.021821 0.047729 0.300784
0.164612 0.055880 0.251867
0.396739 0.099921 0.334550
0.099272 0.099989 0.099940
0.230988 0.099808 0.100029
0.351973 0.049712 0.355967
0.404257 0.099808 0.376728
0.264948 0.099466 0.212327
0.705300 0.100035 0.735765
0.527468 0.099851 0.460336
0.237716 0.099918 0.253833
0.402889 0.099596 0.468622
0.152997 0.102477 0.257333
0.480088 0.007713 0.450706
0.285539 0.027700 0.324235
0.163788 0.016825 0.498633
0.090725 0.050749 0.699814
0.122819 0.042317 0.298895
0.113009 0.076887 0.252763
0.187332 0.095914 0.769923
0.455288 0.099959 0.692482
0.099893 0.099800 0.417791
0.407739 0.076467 0.299928
0.652401 0.099980 0.312866
0.417523 0.028472 0.299897
0.488633 0.099861 0.270873
0.288601 0.047133 0.157055
0.473098 0.099948 0.361561
0.565148 0.099747 0.236178
0.628596 0.059842 0.328672
0.406798 0.099976 0.422004
0.566328 0.042990 0.498784
0.341929 0.099666 0.360563
0.609674 0.017854 0.622512
0.300046 0.099730 0.680766
0.532618 0.099854 0.564452
0.182572 0.100532 0.299160
0.675643 0.151632 0.765758
0.581363 0.099952 0.588878
0.590439 0.100000 0.656153
0.272604 0.004324 0.750814
0.575015 0.099986 0.701444
0.399825 0.099698 0.530154
0.369391 0.099910 0.498583
0.428993 0.099235 0.567342
0.671037 0.189766 0.709259
0.300619 0.099939 0.072548
0.300209 0.000384 0.077280
0.798597 0.051057 0.529240
0.448647 0.099914 0.296937
0.798112 0.140910 0.686982
0.758906 0.063457 0.652941
0.657959 0.099311 0.292439
0.541111 0.046263 0.420321
0.694338 0.028871 0.164729
0.741205 0.022942 0.637287
0.649794 0.037918 0.581199
0.667105 0.099984 0.475029
0.676746 0.059645 0.671768
0.641878 0.030704 0.685533
0.544531 0.098196 0.626050
0.720439 0.079487 0.653283
0.725858 0.201415 0.599847
0.636078 0.082804 0.658017
0.757048 0.123747 0.694305
0.397614 0.055363 0.682797
0.683862 0.011443 0.668981
0.193151 0.099771 0.712428
0.427895 0.014164 0.658933
0.294272 0.099972 0.588909
0.300437 0.099782 0.022578
0.292739 0.032867 0.276578
0.713504 0.099659 0.299783
0.687202 0.006975 0.248973
0.679335 0.010997 0.437492
0.783597 0.001844 0.635419
0.643774 0.099578 0.394552
0.676228 0.109362 0.247769
0.675064 0.026519 0.537579
0.431208 0.070948 0.266953
0.632325 0.050743 0.536992
0.751157 0.047056 0.536334
0.676873 0.137511 0.641112
0.250411 0.099889 0.387427
0.291831 0.013877 0.594133
0.671786 0.073310 0.750256
0.399444 0.094232 0.644250
0.742278 0.027860 0.681027
0.695374 0.098466 0.699714
0.685817 0.015890 0.781989
0.301645 0.099684 0.717560
0.220330 0.054747 0.447394
0.243612 0.099783 0.562345
0.574517 0.042479 0.650112
0.260025 0.066487 0.339137
0.404688 0.102553 0.299731
0.520269 0.098214 0.238448
0.705018 0.003341 0.506060
0.691622 0.020362 0.287590
0.699978 0.075777 0.259678
0.577837 0.093748 0.528278
0.770462 0.000615 0.295569
0.679280 0.097770 0.550050
0.602158 0.062188 0.686570
0.657455 0.054874 0.423941
0.622064 0.112139 0.511690
0.378679 0.099419 0.399674
0.624387 0.002294 0.561904
0.632973 0.023679 0.453104
0.690100 0.093385 0.623374
0.299783 0.000606 0.641700
0.710449 0.072650 0.798473
0.456028 0.052521 0.565337
0.553378 0.007798 0.699788
0.738032 0.148495 0.720418
0.380706 0.099987 0.690893
0.100165 0.086389 0.299908
0.247010 0.052661 0.751815
0.190677 0.099700 0.236686
0.582229 0.056101 0.299879
0.383619 0.005531 0.279900
0.745546 0.165670 0.268258
0.483109 0.099888 0.415101
0.601601 0.024694 0.300843
0.656778 0.071255 0.185520
0.673227 0.049671 0.478601
0.530180 0.099686 0.288905
0.601543 0.099937 0.404695
0.621591 0.099989 0.450854
0.640468 0.128589 0.663560
0.559072 0.099958 0.413665
0.609097 0.070613 0.619680
0.548484 0.078657 0.669402
0.680155 0.108606 0.788436
0.267526 0.056834 0.594441
0.652890 0.094835 0.699004
0.659727 0.178667 0.665553
0.743062 0.216004 0.692259
0.239165 0.099997 0.734089
0.266257 0.099995 0.773441
0.276109 0.058977 0.798881
0.764656 0.068481 0.699736
0.734325 0.045125 0.387290
0.356022 0.046134 0.251920
0.726951 0.105759 0.331676
0.397289 0.053345 0.250542
0.631801 0.100050 0.558887
0.381821 0.052973 0.299145
0.653595 0.049874 0.297344
0.789560 0.099656 0.521854
0.611767 0.091900 0.300099
0.689809 0.192595 0.299532
0.395955 0.100076 0.259944
0.634973 0.099935 0.259746
0.584321 0.121851 0.613963
0.657185 0.082595 0.595526
0.430433 0.023832 0.253981
0.658565 0.079140 0.513104
0.674187 0.119459 0.732404
0.674866 0.210870 0.697630
0.692229 0.199979 0.764840
0.697667 0.132328 0.496222
0.700691 0.187309 0.691602
0.769238 0.225102 0.599885
0.334439 0.099947 0.777267
0.698400 0.183086 0.499943
0.669538 0.149164 0.299642
0.758182 0.003584 0.398078
0.733049 0.100710 0.263630
0.509854 0.055190 0.299935
0.738405 0.119412 0.579628
0.796720 0.050419 0.298441
0.699953 0.099630 0.300214
0.697645 0.061253 0.307129
0.793439 0.004276 0.553776
0.799988 0.095928 0.613817
0.753392 0.134526 0.461988
0.697582 0.047750 0.225414
0.740682 0.058541 0.754905
0.696716 0.116511 0.585028
0.694724 0.103565 0.668148
0.740744 0.011451 0.591559
0.779013 0.079829 0.744086
0.756606 0.199934 0.648902
0.764633 0.027563 0.722417
0.787896 0.099831 0.702307
0.427880 0.002920 0.767652
0.786149 0.045015 0.775040
0.731429 0.110058 0.770762
0.706277 0.050959 0.725705
0.741191 0.089779 0.299744
0.776675 0.096109 0.392563
0.783707 0.081372 0.566677
0.731308 0.097685 0.378518
0.717769 0.099993 0.465999
0.718150 0.099991 0.419740
0.349125 0.079308 0.277852
0.650635 0.000615 0.300002
0.777598 0.052069 0.365255
0.689220 0.053293 0.372969
0.787572 0.037173 0.588953
0.795234 0.050619 0.634108
0.734791 0.165135 0.574986
0.731805 0.056102 0.486145
0.706176 0.007426 0.744159
0.695301 0.041291 0.592077
0.710644 0.160485 0.777090
0.706210 0.088728 0.592800
0.340733 0.069545 0.723042
0.755702 0.170070 0.685776
0.743526 0.033669 0.797309
0.742765 0.099959 0.721084
0.702790 0.089116 0.696900
0.783336 0.099628 0.659152
0.594157 0.099975 0.267028
0.723323 0.142585 0.360379
0.300661 0.050309 0.078003
0.766022 0.097780 0.342867
0.737444 0.010680 0.465216
0.738142 0.018690 0.320757
0.699049 0.053361 0.064882
0.773019 0.097036 0.299040
0.673482 0.153846 0.593858
0.648940 0.044554 0.634975
0.686108 0.192372 0.566540
0.776397 0.174407 0.735237
0.714519 0.119299 0.623257
0.705980 0.089503 0.511263
0.654496 0.199980 0.621449
0.750468 0.199901 0.546177
0.623350 0.099967 0.728072
0.783192 0.114228 0.787641
0.523610 0.082203 0.709429
0.700040 0.162264 0.623215
0.737734 0.100183 0.680640
0.789581 0.037020 0.680634
0.790634 0.199941 0.697414
0.787127 0.029148 0.431052
0.723298 0.099967 0.223282
0.700902 0.083136 0.344401
0.299457 0.099391 0.101418
0.792404 0.070319 0.465631
0.661482 0.058175 0.256606
0.445223 0.099793 0.233911
0.658775 0.022715 0.389430
0.759713 0.091230 0.437648
0.675738 0.141043 0.690968
0.708434 0.140721 0.264079
0.697426 0.099973 0.160281
0.675287 0.029185 0.332587
0.798206 0.192632 0.545215
0.754276 0.096476 0.617423
0.773150 0.032530 0.491677
0.770982 0.134476 0.549060
0.734656 0.199340 0.727491
0.770067 0.138743 0.599963
0.793483 0.130989 0.362112
0.744963 0.059843 0.585821
0.736298 0.165369 0.622189
0.799633 0.378039 0.560040
0.716863 0.147857 0.666053
0.721811 0.138637 0.533487
0.300697 0.050006 0.027782
0.698828 0.099582 0.097671
0.616335 0.055422 0.269239
0.749866 0.049020 0.292006
0.624152 0.138593 0.298996
0.767433 0.079614 0.255744
0.673446 0.099987 0.428837
0.264832 0.099763 0.137056
0.701235 0.126066 0.299789
0.704133 0.055756 0.299987
0.673030 0.064054 0.138050
0.299872 0.013049 0.196701
0.693755 0.100228 0.294576
0.742339 0.094253 0.543195
0.669502 0.100052 0.353858
0.729301 0.052970 0.435491
0.696114 0.186178 0.639544
0.763568 0.137136 0.299642
0.776628 0.185719 0.439819
0.703425 0.202388 0.638724
0.764008 0.140010 0.648218
0.795886 0.122183 0.441989
0.741587 0.158917 0.405784
0.733770 0.190628 0.471302

CELL_TYPES 360
1
1
1
1
1
1
1
1
1
1
1
1
1
1
1
1
1
1
1
1
1
1
1
1
1
1
1
1
1
1
1
1
1
1
1
1
1
1
1
1
1
1
1
1
1
1
1
1
1
1
1
1
1
1
1
1
1
1
1
1
1
1
1
1
1
1
1
1
1
1
1
1
1
1
1
1
1
1
1
1
1
1
1
1
1
1
1
1
1
1
1
1
1
1
1
1
1
1
1
1
1
1
1
1
1
1
1
1
1
1
1
1
1
1
1
1
1
1
1
1
1
1
1
1
1
1
1
1
1
1
1
1
1
1
1
1
1
1
1
1
1
1
1
1
1
1
1
1
1
1
1
1
1
1
1
1
1
1
1
1
1
1
1
1
1
1
1
1
1
1
1
1
1
1
1
1
1
1
1
1
1
1
1
1
1
1
1
1
1
1
1
1
1
1
1
1
1
1
1
1
1
1
1
1
1
1
1
1
1
1
1
1
1
1
1
1
1
1
1
1
1
1
1
1
1
1
1
1
1
1
1
1
1
1
1
1
1
1
1
1
1
1
1
1
1
1
1
1
1
1
1
1
1
1
1
1
1
1
1
1
1
1
1
1
1
1
1
1
1
1
1
1
1
1
1
1
1
1
1
1
1
1
1
1
1
1
1
1
1
1
1
1
1
1
1
1
1
1
1
1
1
1
1
1
1
1
1
1
1
1
1
1
1
1
1
1
1
1
1
1
1
1
1
1
1
1
1
1
1
1
1
1
1
1
1
1
1
1
1
1
1
1
1
1
1
1
1
1
1
1
1
1
1
1
1
1
1
1
1
1

POINT_DATA 360
SCALARS radius float
LOOKUP_TABLE default
0.5
0.5
0.5
0.5
0.5
0.5
0.5
0.5
0.5
0.5
0.5
0.5
0.5
0.5
0.5
0.5
0.5
0.5
0.5
0.5
0.5
0.5
0.5
0.5
0.5
0.5
0.5
0.5
0.5
0.5
0.5
0.5
0.5
0.5
0.5
0.5
0.5
0.5
0.5
0.5
0.5
0.5
0.5
0.5
0.5
0.5
0.5
0.5
0.5
0.5
0.5
0.5
0.5
0.5
0.5
0.5
0.5
0.5
0.5
0.5
0.5
0.5
0.5
0.5
0.5
0.5
0.5
0.5
0.5
0.5
0.5
0.5
0.5
0.5
0.5
0.5
0.5
0.5
0.5
0.5
0.5
0.5
0.5
0.5
0.5
0.5
0.5
0.5
0.5
0.5
0.5
0.5
0.5
0.5
0.5
0.5
0.5
0.5
0.5
0.5
0.5
0.5
0.5
0.5
0.5
0.5
0.5
0.5
0.5
0.5
0.5
0.5
0.5
0.5
0.5
0.5
0.5
0.5
0.5
0.5
0.5
0.5
0.5
0.5
0.5
0.5
0.5
0.5
0.5
0.5
0.5
0.5
0.5
0.5
0.5
0.5
0.5
0.5
0.5
0.5
0.5
0.5
0.5
0.5
0.5
0.5
0.5
0.5
0.5
0.5
0.5
0.5
0.5
0.5
0.5
0.5
0.5
0.5
0.5
0.5
0.5
0.5
0.5
0.5
0.5
0.5
0.5
0.5
0.5
0.5
0.5
0.5
0.5
0.5
0.5
0.5
0.5
0.5
0.5
0.5
0.5
0.5
0.5
0.5
0.5
0.5
0.5
0.5
0.5
0.5
0.5
0.5
0.5
0.5
0.5
0.5
0.5
0.5
0.5
0.5
0.5
0.5
0.5
0.5
0.5
0.5
0.5
0.5
0.5
0.5
0.5
0.5
0.5
0.5
0.5
0.5
0.5
0.5
0.5
0.5
0.5
0.5
0.5
0.5
0.5
0.5
0.5
0.5
0.5
0.5
0.5
0.5
0.5
0.5
0.5
0.5
0.5
0.5
0.5
0.5
0.5
0.5
0.5
0.5
0.5
0.5
0.5
0.5
0.5
0.5
0.5
0.5
0.5
0.5
0.5
0.5
0.5
0.5
0.5
0.5
0.5
0.5
0.5
0.5
0.5
0.5
0.5
0.5
0.5
0.5
0.5
0.5
0.5
0.5
0.5
0.5
0.5
0.5
0.5
0.5
0.5
0.5
0.5
0.5
0.5
0.5
0.5
0.5
0.5
0.5
0.5
0.5
0.5
0.5
0.5
0.5
0.5
0.5
0.5
0.5
0.5
0.5
0.5
0.5
0.5
0.5
0.5
0.5
0.5
0.5
0.5
0.5
0.5
0.5
0.5
0.5
0.5
0.5
0.5
0.5
0.5
0.5
0.5
0.5
0.5
0.5
0.5
0.5
0.5
0.5
0.5
0.5
0.5
0.5
0.5
0.5
0.5
0.5
0.5
0.5
0.5
0.5
0.5
0.5
0.5
0.5
0.5
0.5
0.5
0.5
0.5
0.5
0.5
0.5
0.5
0.5
0.5
0.5
0.5
0.5
