# vtk DataFile Version 2.0
Title Data
ASCII
DATASET UNSTRUCTURED_GRID
POINTS 512 float
0.099875 0.099502 0.069074
0.006258 0.098384 0.103081
0.099675 0.051896 0.087201
0.129837 0.061081 0.061938
0.099954 0.000016 0.099928
0.081526 0.091171 0.004782
0.093155 0.068889 0.132721
0.099918 0.058474 0.099909
0.097684 0.063323 0.059922
0.050091 0.062011 0.036466
0.104152 0.030816 0.100053
0.055950 0.002526 0.097142
0.000509 0.072700 0.155548
0.115080 0.072015 0.166547
0.097130 0.004929 0.164828
0.045574 0.002487 0.159820
0.099963 0.095102 0.201980
0.099973 0.088212 0.199998
0.099459 0.061519 0.224828
0.099959 0.031113 0.200053
0.042168 0.010353 0.284112
0.003722 0.092549 0.261647
0.047090 0.062357 0.274749
0.015542 0.041442 0.273407
0.098636 0.026156 0.359711
0.022780 0.009779 0.359292
0.091657 0.064839 0.340822
0.043683 0.063711 0.337248
0.088403 0.005375 0.472693
0.045729 0.017290 0.481469
0.083052 0.059001 0.458507
0.047234 0.069401 0.473205
0.030740 0.090581 0.074705
0.097947 0.074490 0.100235
0.112087 0.048090 0.100002
0.000975 0.026611 0.083749
0.070681 0.074777 0.024379
0.076974 0.060790 0.051890
0.073509 0.022335 0.130977
0.109556 0.097918 0.099985
0.099983 0.010469 0.116241
0.127138 0.013041 0.099727
0.099942 0.087995 0.101092
0.135143 0.084288 0.065949
0.020910 0.032639 0.100534
0.031458 0.027555 0.142009
0.089092 0.057294 0.009981
0.128426 0.072514 0.135610
0.097805 0.053332 0.171774
0.034779 0.051619 0.182605
0.074718 0.039789 0.169678
0.119709 0.026140 0.179006
0.047578 0.051349 0.231011
0.074340 0.045238 0.239717
0.002056 0.000292 0.217102
0.126650 0.012338 0.235072
0.070595 0.092099 0.276527
0.035850 0.084956 0.274285
0.114066 0.038504 0.281096
0.053793 0.048840 0.300823
0.078079 0.080313 0.347598
0.098753 0.090542 0.366178
0.098408 0.027074 0.399968
0.001116 0.026611 0.396194
0.046500 0.081227 0.084178
0.015959 0.080279 0.118353
0.080917 0.038511 0.060022
0.099969 0.041907 0.109603
0.046087 0.080807 0.133116
0.069540 0.091509 0.093701
0.070456 0.015215 0.032852
0.098857 0.023337 0.099873
0.086780 0.052797 0.134176
0.047423 0.083661 0.049495
0.110452 0.094213 0.036972
0.037941 0.095078 0.135475
0.101816 0.054120 0.142796
0.037359 0.050974 0.135653
0.087116 0.092630 0.161487
0.021049 0.084378 0.167349
0.024656 0.087621 0.212010
0.050870 0.085056 0.181061
0.055067 0.009299 0.216007
0.063564 0.029797 0.200783
0.116340 0.080573 0.257088
0.094926 0.087507 0.248688
0.058777 0.033331 0.268402
0.001944 0.022171 0.251332
0.082641 0.005157 0.329053
0.099261 0.091800 0.317875
0.092086 0.035338 0.305050
0.001011 0.045957 0.316592
0.092789 0.000125 0.411633
0.054732 0.099405 0.438160
0.078840 0.034029 0.435131
0.042910 0.065621 0.425632
0.042026 0.003431 0.109864
0.099523 0.009664 0.045540
0.073418 0.042984 0.141068
0.054829 0.044916 0.103966
0.010676 0.012796 0.023095
0.049648 0.030609 0.120866
0.016173 0.050887 0.056541
0.083625 0.039460 0.090973
0.114119 0.047238 0.026144
0.042702 0.035630 0.040177
0.099368 0.094691 0.099889
0.033444 0.078873 0.001245
0.099846 0.027278 0.136115
0.027871 0.045488 0.158386
0.129165 0.090712 0.140883
0.128780 0.001421 0.140694
0.018724 0.066356 0.198093
0.060805 0.062762 0.200715
0.018036 0.005263 0.183318
0.113454 0.006502 0.191141
0.006570 0.065373 0.243059
0.065384 0.073478 0.237888
0.044246 0.018538 0.244307
0.085063 0.006056 0.248155
0.100002 0.070235 0.300080
0.013586 0.073829 0.300094
0.074982 0.017466 0.299677
0.029962 0.006616 0.313439
0.073439 0.077869 0.412734
0.014156 0.083479 0.397531
0.063392 0.038861 0.361885
0.015662 0.049641 0.366406
0.095847 0.084061 0.084175
0.163332 0.073333 0.101524
0.011839 0.019119 0.053459
0.175901 0.018713 0.138840
0.002352 0.061529 0.101470
0.173911 0.064516 0.135940
0.129994 0.019066 0.046277
0.149714 0.005185 0.045689
0.060450 0.078280 0.100725
0.150213 0.078028 0.038815
0.049197 0.019516 0.076444
0.165677 0.015792 0.073065
0.050226 0.068857 0.145096
0.142312 0.079815 0.144559
0.066047 0.021977 0.162308
0.135572 0.028006 0.139673
0.060298 0.090350 0.205024
0.156953 0.094624 0.202315
0.099977 0.053003 0.199982
0.146358 0.058892 0.196650
0.102278 0.018095 0.267483
0.134696 0.003990 0.270139
0.079336 0.064727 0.265519
0.134221 0.063983 0.274976
0.099013 0.025877 0.341335
0.140910 0.024579 0.344469
0.010748 0.080794 0.345502
0.136513 0.062945 0.360328
0.004274 0.041176 0.474208
0.117195 0.038477 0.478044
0.005448 0.088993 0.476956
0.110988 0.084925 0.446170
0.104906 0.013652 0.146709
0.154463 0.010521 0.108753
0.123803 0.076683 0.099977
0.132256 0.064894 0.019487
0.093068 0.026674 0.005276
0.136583 0.020113 0.016257
0.070964 0.081396 0.138006
0.167956 0.080623 0.125064
0.127091 0.037354 0.061401
0.141224 0.036663 0.125848
0.067180 0.095150 0.051582
0.098098 0.090035 0.037043
0.053534 0.042162 0.064966
0.053228 0.034496 0.007913
0.074963 0.003857 0.089409
0.047171 0.099448 0.007132
0.077461 0.078970 0.171856
0.064348 0.061514 0.171694
0.118588 0.042545 0.165056
0.138522 0.045716 0.180126
0.095609 0.082422 0.230960
0.099974 0.064512 0.200047
0.015191 0.037833 0.221119
0.095117 0.010335 0.229453
0.099836 0.094240 0.292426
0.136073 0.085300 0.285947
0.095486 0.060906 0.277941
0.100004 0.053081 0.300008
0.051855 0.075433 0.377788
0.096170 0.097836 0.381608
0.050155 0.039259 0.396852
0.050815 0.008199 0.394294
0.024921 0.059063 0.093746
0.138484 0.054716 0.102682
0.131183 0.092962 0.099157
0.155686 0.092919 0.117021
0.001913 0.057108 0.023364
0.157395 0.053813 0.041980
0.122327 0.085661 0.018844
0.166635 0.093841 0.097405
0.104100 0.075126 0.100040
0.143188 0.079132 0.096506
0.071134 0.097143 0.134468
0.142945 0.009590 0.088924
0.099344 0.084802 0.138873
0.134209 0.050642 0.137476
0.004197 0.010423 0.138473
0.042449 0.003032 0.053151
0.095790 0.091955 0.178860
0.139773 0.098255 0.181900
0.043135 0.029068 0.201627
0.143218 0.037225 0.201282
0.050063 0.096213 0.244049
0.099338 0.003279 0.199994
0.123115 0.044043 0.240547
0.100014 0.042273 0.200000
0.056450 0.001709 0.349361
0.127812 0.092649 0.331632
0.045331 0.035001 0.326086
0.114761 0.051163 0.333719
0.001832 0.008268 0.436196
0.118828 0.017965 0.437569
0.034002 0.036321 0.439794
0.136421 0.051732 0.422336
0.142821 0.045898 0.062142
0.156846 0.051005 0.094730
0.093685 0.085833 0.065377
0.141241 0.096813 0.001895
0.093275 0.036329 0.042732
0.167901 0.046072 0.003288
0.098024 0.078089 0.050307
0.170690 0.099112 0.130917
0.014526 0.074709 0.054154
0.132141 0.040448 0.099811
0.000349 0.021401 0.100695
0.139318 0.094834 0.061463
0.056016 0.049577 0.084401
0.056149 0.065947 0.101450
0.099514 0.094855 0.131892
0.097219 0.020134 0.068140
0.127446 0.076863 0.178475
0.138471 0.084035 0.192304
0.004276 0.030046 0.178722
0.060112 0.008859 0.175505
0.099975 0.077983 0.200040
0.040847 0.077021 0.234055
0.100014 0.018596 0.200000
0.094369 0.038345 0.243916
0.056473 0.080225 0.313042
0.099966 0.084271 0.300018
0.100005 0.020037 0.296973
0.130829 0.016224 0.305659
0.100228 0.064907 0.431921
0.121097 0.077836 0.399935
0.097220 0.053254 0.400005
0.097549 0.060382 0.377855
0.199980 0.082383 0.099997
0.288885 0.016771 0.026065
0.218767 0.066501 0.099710
0.277483 0.063293 0.039876
0.199984 0.092229 0.100002
0.267897 0.089882 0.098065
0.220594 0.033669 0.054909
0.276667 0.043829 0.100083
0.202793 0.096742 0.049905
0.272071 0.016990 0.102059
0.199986 0.046672 0.099950
0.265451 0.060813 0.110952
0.211201 0.097240 0.139681
0.273295 0.004523 0.138934
0.202530 0.058350 0.144331
0.272274 0.055106 0.134263
0.192285 0.079510 0.178040
0.253465 0.094045 0.146058
0.182286 0.049643 0.177932
0.254226 0.039502 0.145953
0.169506 0.097980 0.243700
0.229999 0.092747 0.182831
0.140416 0.042326 0.241993
0.229751 0.046616 0.182951
0.187073 0.026212 0.337779
0.266059 0.024663 0.347655
0.176308 0.062143 0.346320
0.247960 0.069216 0.354116
0.157421 0.023055 0.458264
0.226073 0.016094 0.434922
0.153344 0.075168 0.456054
0.095102 0.070795 0.499986
0.189706 0.056845 0.100044
0.237166 0.051457 0.030753
0.156613 0.030952 0.096722
0.222280 0.005871 0.012940
0.180032 0.056910 0.031594
0.243639 0.057689 0.079090
0.180357 0.020514 0.002009
0.226782 0.010103 0.058346
0.173566 0.079338 0.067791
0.226889 0.085894 0.097346
0.171451 0.033337 0.050072
0.212863 0.032202 0.100000
0.168430 0.059963 0.085452
0.229050 0.048299 0.101546
0.183356 0.039380 0.132524
0.225320 0.008860 0.084606
0.156109 0.047005 0.145605
0.222321 0.068284 0.139074
0.143681 0.099440 0.155271
0.220202 0.016164 0.135392
0.159591 0.072632 0.210512
0.193497 0.060552 0.195499
0.151940 0.016503 0.208798
0.182743 0.095751 0.179945
0.176020 0.098090 0.285127
0.203672 0.082490 0.299986
0.152812 0.046774 0.285099
0.187424 0.056209 0.300211
0.141018 0.089019 0.369246
0.205566 0.087869 0.358705
0.131864 0.028652 0.384639
0.200586 0.059753 0.387561
0.203246 0.084387 0.003585
0.263363 0.082066 0.065931
0.199971 0.009062 0.099991
0.266087 0.036390 0.049422
0.170998 0.087154 0.033757
0.257245 0.078608 0.113256
0.197576 0.043366 0.059841
0.257995 0.019262 0.096032
0.180576 0.092856 0.072316
0.254654 0.098335 0.056901
0.210653 0.040567 0.019964
0.262300 0.037084 0.067719
0.186102 0.094661 0.144480
0.235955 0.094023 0.096578
0.199724 0.036211 0.151675
0.234031 0.036902 0.134130
0.166999 0.085525 0.164359
0.243356 0.077568 0.139480
0.178541 0.025620 0.173872
0.227865 0.032106 0.171038
0.139964 0.084455 0.238514
0.186400 0.090079 0.227724
0.167281 0.035230 0.219422
0.199971 0.029504 0.199981
0.166662 0.098856 0.354203
0.233406 0.004300 0.324081
0.146849 0.051922 0.317970
0.218838 0.052811 0.328112
0.150983 0.006966 0.412952
0.194603 0.010863 0.399069
0.180564 0.047223 0.424745
0.236764 0.047606 0.404178
0.199968 0.069282 0.100014
0.243133 0.062795 0.004028
0.199970 0.097723 0.099992
0.252112 0.017965 0.025212
0.199998 0.063931 0.067449
0.239259 0.072741 0.057576
0.181220 0.007039 0.029230
0.244254 0.006358 0.121149
0.198647 0.072473 0.033982
0.219323 0.079954 0.051845
0.185797 0.031423 0.108211
0.199948 0.024249 0.100013
0.201278 0.081720 0.138080
0.248279 0.088106 0.015214
0.184877 0.019385 0.064770
0.248604 0.038766 0.096362
0.162250 0.065160 0.163907
0.229255 0.069375 0.167815
0.158762 0.020275 0.167572
0.222290 0.002245 0.165739
0.134205 0.065152 0.228109
0.199967 0.056942 0.199964
0.135667 0.098384 0.227392
0.197592 0.015551 0.194628
0.147234 0.078734 0.316996
0.190619 0.087074 0.317794
0.163642 0.014963 0.309426
0.199985 0.024238 0.299991
0.166469 0.077682 0.396076
0.236382 0.093249 0.393566
0.167615 0.037218 0.378874
0.221403 0.027874 0.364026
0.365695 0.020434 0.099998
0.467423 0.004961 0.090625
0.353137 0.063464 0.098554
0.460811 0.063917 0.092254
0.365620 0.006862 0.021753
0.482055 0.018436 0.048169
0.342069 0.066976 0.041322
0.474095 0.069710 0.050624
0.346992 0.026714 0.101555
0.479926 0.040216 0.004190
0.351354 0.079483 0.002070
0.477333 0.088603 0.007804
0.349368 0.028330 0.140587
0.477253 0.038363 0.122065
0.360066 0.061335 0.133497
0.448266 0.088383 0.130131
0.342339 0.023989 0.191282
0.458153 0.019004 0.161626
0.355150 0.062638 0.175833
0.499625 0.072654 0.099371
0.353766 0.024427 0.260972
0.485207 0.014999 0.270758
0.355032 0.071790 0.251995
0.468183 0.066090 0.163242
0.231153 0.087406 0.227787
0.271535 0.014717 0.225037
0.213873 0.051851 0.231615
0.297558 0.056385 0.214597
0.230908 0.002386 0.278980
0.271959 0.009048 0.288574
0.233787 0.050196 0.290643
0.276894 0.060993 0.287518
0.287485 0.090316 0.055650
0.358649 0.081124 0.076015
0.300026 0.035933 0.100004
0.399967 0.032522 0.099812
0.283154 0.088897 0.012181
0.367911 0.093185 0.106900
0.302005 0.046404 0.051299
0.398965 0.015672 0.102812
0.298848 0.093427 0.099989
0.383014 0.070242 0.045943
0.287184 0.063380 0.080690
0.401730 0.034011 0.038495
0.293902 0.085915 0.135821
0.395331 0.092406 0.069582
0.299997 0.055257 0.099987
0.395399 0.014810 0.058195
0.294983 0.096469 0.175058
0.374776 0.089892 0.140970
0.296281 0.060200 0.148545
0.389175 0.035357 0.138542
0.300004 0.090356 0.204026
0.365175 0.087491 0.207040
0.299994 0.059509 0.197774
0.398663 0.060018 0.204587
0.178088 0.068568 0.233516
0.264354 0.060265 0.178202
0.180890 0.030223 0.232860
0.279888 0.027415 0.149549
0.172534 0.058124 0.256334
0.257055 0.053742 0.222376
0.156501 0.023711 0.265711
0.229351 0.005608 0.230347
0.328428 0.001097 0.081906
0.411118 0.099131 0.099832
0.329489 0.034959 0.072327
0.435967 0.032825 0.077117
0.322218 0.092981 0.099811
0.438418 0.001070 0.050410
0.318278 0.045785 0.098658
0.426729 0.062303 0.049389
0.354697 0.003470 0.056078
0.436724 0.010180 0.001465
0.329625 0.038253 0.032574
0.443932 0.040983 0.029462
0.334370 0.095392 0.128227
0.434971 0.023881 0.120298
0.323656 0.053947 0.124447
0.430459 0.052574 0.140705
0.361480 0.000837 0.165381
0.413304 0.007514 0.155449
0.321373 0.050251 0.164083
0.427340 0.047900 0.184831
0.327682 0.003500 0.231398
0.400229 0.012693 0.200003
0.337557 0.052007 0.219721
0.476214 0.046271 0.236767
0.199984 0.082182 0.199973
0.273138 0.080991 0.168503
0.237987 0.029595 0.209466
0.275335 0.033164 0.183336
0.171321 0.082157 0.271897
0.280613 0.086202 0.248493
0.197960 0.037098 0.269330
0.288165 0.035362 0.253083
0.323457 0.073340 0.080497
0.423164 0.078975 0.074027
0.295732 0.011900 0.067504
0.365561 0.042034 0.061597
0.307915 0.070011 0.011017
0.404024 0.087725 0.020650
0.321936 0.006621 0.032438
0.367692 0.045471 0.010363
0.317592 0.082266 0.051713
0.430141 0.065825 0.100815
0.299964 0.016192 0.099999
0.395947 0.054463 0.092865
0.300043 0.078690 0.100003
0.402671 0.074578 0.128242
0.306955 0.021495 0.131369
0.392232 0.071507 0.100012
0.327538 0.082620 0.145512
0.398325 0.078468 0.173108
0.316578 0.016938 0.162631
0.382017 0.038237 0.171267
0.326777 0.084654 0.188627
0.397830 0.090562 0.240142
0.299993 0.022721 0.199995
0.375737 0.027320 0.219074
0.234070 0.075175 0.198696
0.265622 0.083180 0.208755
0.199855 0.002850 0.200527
0.256890 0.008033 0.184452
0.208662 0.076273 0.260820
0.245355 0.071902 0.257665
0.201172 0.011949 0.251588
0.242560 0.031956 0.255591

CELL_TYPES 512
1
1
1
1
1
1
1
1
1
1
1
1
1
1
1
1
1
1
1
1
1
1
1
1
1
1
1
1
1
1
1
1
1
1
1
1
1
1
1
1
1
1
1
1
1
1
1
1
1
1
1
1
1
1
1
1
1
1
1
1
1
1
1
1
1
1
1
1
1
1
1
1
1
1
1
1
1
1
1
1
1
1
1
1
1
1
1
1
1
1
1
1
1
1
1
1
1
1
1
1
1
1
1
1
1
1
1
1
1
1
1
1
1
1
1
1
1
1
1
1
1
1
1
1
1
1
1
1
1
1
1
1
1
1
1
1
1
1
1
1
1
1
1
1
1
1
1
1
1
1
1
1
1
1
1
1
1
1
1
1
1
1
1
1
1
1
1
1
1
1
1
1
1
1
1
1
1
1
1
1
1
1
1
1
1
1
1
1
1
1
1
1
1
1
1
1
1
1
1
1
1
1
1
1
1
1
1
1
1
1
1
1
1
1
1
1
1
1
1
1
1
1
1
1
1
1
1
1
1
1
1
1
1
1
1
1
1
1
1
1
1
1
1
1
1
1
1
1
1
1
1
1
1
1
1
1
1
1
1
1
1
1
1
1
1
1
1
1
1
1
1
1
1
1
1
1
1
1
1
1
1
1
1
1
1
1
1
1
1
1
1
1
1
1
1
1
1
1
1
1
1
1
1
1
1
1
1
1
1
1
1
1
1
1
1
1
1
1
1
1
1
1
1
1
1
1
1
1
1
1
1
1
1
1
1
1
1
1
1
1
1
1
1
1
1
1
1
1
1
1
1
1
1
1
1
1
1
1
1
1
1
1
1
1
1
1
1
1
1
1
1
1
1
1
1
1
1
1
1
1
1
1
1
1
1
1
1
1
1
1
1
1
1
1
1
1
1
1
1
1
1
1
1
1
1
1
1
1
1
1
1
1
1
1
1
1
1
1
1
1
1
1
1
1
1
1
1
1
1
1
1
1
1
1
1
1
1
1
1
1
1
1
1
1
1
1
1
1
1
1
1
1
1
1
1
1
1
1
1
1
1
1
1
1
1
1
1
1
1
1
1
1
1
1
1
1
1
1
1
1
1
1
1
1
1
1
1
1
1
1
1
1
1
1
1
1
1
1
1
1
1
1
1
1
1
1
1
1
1
1
1
1

POINT_DATA 512
SCALARS radius float
LOOKUP_TABLE default
0.5
0.5
0.5
0.5
0.5
0.5
0.5
0.5
0.5
0.5
0.5
0.5
0.5
0.5
0.5
0.5
0.5
0.5
0.5
0.5
0.5
0.5
0.5
0.5
0.5
0.5
0.5
0.5
0.5
0.5
0.5
0.5
0.5
0.5
0.5
0.5
0.5
0.5
0.5
0.5
0.5
0.5
0.5
0.5
0.5
0.5
0.5
0.5
0.5
0.5
0.5
0.5
0.5
0.5
0.5
0.5
0.5
0.5
0.5
0.5
0.5
0.5
0.5
0.5
0.5
0.5
0.5
0.5
0.5
0.5
0.5
0.5
0.5
0.5
0.5
0.5
0.5
0.5
0.5
0.5
0.5
0.5
0.5
0.5
0.5
0.5
0.5
0.5
0.5
0.5
0.5
0.5
0.5
0.5
0.5
0.5
0.5
0.5
0.5
0.5
0.5
0.5
0.5
0.5
0.5
0.5
0.5
0.5
0.5
0.5
0.5
0.5
0.5
0.5
0.5
0.5
0.5
0.5
0.5
0.5
0.5
0.5
0.5
0.5
0.5
0.5
0.5
0.5
0.5
0.5
0.5
0.5
0.5
0.5
0.5
0.5
0.5
0.5
0.5
0.5
0.5
0.5
0.5
0.5
0.5
0.5
0.5
0.5
0.5
0.5
0.5
0.5
0.5
0.5
0.5
0.5
0.5
0.5
0.5
0.5
0.5
0.5
0.5
0.5
0.5
0.5
0.5
0.5
0.5
0.5
0.5
0.5
0.5
0.5
0.5
0.5
0.5
0.5
0.5
0.5
0.5
0.5
0.5
0.5
0.5
0.5
0.5
0.5
0.5
0.5
0.5
0.5
0.5
0.5
0.5
0.5
0.5
0.5
0.5
0.5
0.5
0.5
0.5
0.5
0.5
0.5
0.5
0.5
0.5
0.5
0.5
0.5
0.5
0.5
0.5
0.5
0.5
0.5
0.5
0.5
0.5
0.5
0.5
0.5
0.5
0.5
0.5
0.5
0.5
0.5
0.5
0.5
0.5
0.5
0.5
0.5
0.5
0.5
0.5
0.5
0.5
0.5
0.5
0.5
0.5
0.5
0.5
0.5
0.5
0.5
0.5
0.5
0.5
0.5
0.5
0.5
0.5
0.5
0.5
0.5
0.5
0.5
0.5
0.5
0.5
0.5
0.5
0.5
0.5
0.5
0.5
0.5
0.5
0.5
0.5
0.5
0.5
0.5
0.5
0.5
0.5
0.5
0.5
0.5
0.5
0.5
0.5
0.5
0.5
0.5
0.5
0.5
0.5
0.5
0.5
0.5
0.5
0.5
0.5
0.5
0.5
0.5
0.5
0.5
0.5
0.5
0.5
0.5
0.5
0.5
0.5
0.5
0.5
0.5
0.5
0.5
0.5
0.5
0.5
0.5
0.5
0.5
0.5
0.5
0.5
0.5
0.5
0.5
0.5
0.5
0.5
0.5
0.5
0.5
0.5
0.5
0.5
0.5
0.5
0.5
0.5
0.5
0.5
0.5
0.5
0.5
0.5
0.5
0.5
0.5
0.5
0.5
0.5
0.5
0.5
0.5
0.5
0.5
0.5
0.5
0.5
0.5
0.5
0.5
0.5
0.5
0.5
0.5
0.5
0.5
0.5
0.5
0.5
0.5
0.5
0.5
0.5
0.5
0.5
0.5
0.5
0.5
0.5
0.5
0.5
0.5
0.5
0.5
0.5
0.5
0.5
0.5
0.5
0.5
0.5
0.5
0.5
0.5
0.5
0.5
0.5
0.5
0.5
0.5
0.5
0.5
0.5
0.5
0.5
0.5
0.5
0.5
0.5
0.5
0.5
0.5
0.5
0.5
0.5
0.5
0.5
0.5
0.5
0.5
0.5
0.5
0.5
0.5
0.5
0.5
0.5
0.5
0.5
0.5
0.5
0.5
0.5
0.5
0.5
0.5
0.5
0.5
0.5
0.5
0.5
0.5
0.5
0.5
0.5
0.5
0.5
0.5
0.5
0.5
0.5
0.5
0.5
0.5
0.5
0.5
0.5
0.5
0.5
0.5
0.5
0.5
0.5
0.5
0.5
0.5
0.5
0.5
0.5
0.5
0.5
0.5
0.5
0.5
0.5
0.5
0.5
0.5
0.5
0.5
0.5
0.5
0.5
0.5
0.5
0.5
0.5
0.5
0.5
0.5
0.5
0.5
0.5
0.5
0.5
0.5
0.5
0.5
0.5
0.5
0.5
0.5
0.5
0.5
0.5
0.5
0.5
0.5
