# vtk DataFile Version 2.0
Title Data
ASCII
DATASET UNSTRUCTURED_GRID
POINTS 384 float
0.112936 0.123609 0.099830
0.068004 0.097048 0.054208
0.099768 0.133547 0.111410
0.136931 0.183888 0.116363
0.029001 0.098089 0.093314
0.002621 0.106260 0.020477
0.099972 0.238692 0.079415
0.066579 0.150603 0.136373
0.139813 0.059481 0.112158
0.053496 0.080528 0.011505
0.012094 0.086768 0.132398
0.100012 0.118624 0.153674
0.005264 0.102659 0.200221
0.098528 0.099935 0.195644
0.049433 0.074825 0.207289
0.102697 0.187669 0.151966
0.028178 0.058500 0.246137
0.069294 0.080688 0.255331
0.140925 0.123980 0.242517
0.130408 0.168230 0.234117
0.095028 0.094722 0.295358
0.100034 0.121868 0.301358
0.041857 0.086632 0.296267
0.006258 0.094076 0.339996
0.104966 0.099304 0.354917
0.132467 0.163952 0.334718
0.090052 0.101514 0.399810
0.042705 0.099305 0.384438
0.102296 0.115149 0.431632
0.002501 0.243599 0.403570
0.097078 0.228011 0.475456
0.047426 0.285445 0.467064
0.064123 0.059883 0.096081
0.112325 0.120408 0.050071
0.057699 0.197052 0.114519
0.101213 0.187607 0.049937
0.075074 0.155382 0.019629
0.037593 0.166744 0.080707
0.085279 0.099992 0.094666
0.095274 0.160263 0.084349
0.140738 0.143105 0.140993
0.099569 0.194056 0.200045
0.100095 0.199965 0.100009
0.020575 0.132160 0.140524
0.046711 0.099999 0.171291
0.114282 0.092473 0.147264
0.102788 0.139613 0.203796
0.063987 0.099102 0.127837
0.105056 0.099847 0.237519
0.098682 0.213051 0.198832
0.055299 0.191769 0.220188
0.012360 0.171838 0.205471
0.088143 0.150685 0.249328
0.063233 0.126788 0.281740
0.022238 0.104897 0.256029
0.062384 0.117738 0.223277
0.074530 0.126163 0.359243
0.003262 0.152051 0.285543
0.123303 0.158699 0.282212
0.085146 0.162204 0.323185
0.065303 0.233046 0.437275
0.015121 0.291080 0.429007
0.047966 0.155219 0.398762
0.097485 0.182310 0.387290
0.015365 0.294786 0.015392
0.063703 0.199832 0.002838
0.004823 0.379066 0.004816
0.038106 0.296839 0.079498
0.004288 0.199475 0.066716
0.037461 0.131456 0.044582
0.081538 0.312287 0.026840
0.054911 0.199811 0.051583
0.006572 0.309298 0.123028
0.060580 0.244603 0.109530
0.008512 0.384588 0.094277
0.070055 0.364024 0.099876
0.010961 0.189348 0.158310
0.052945 0.158567 0.180389
0.103983 0.388706 0.164137
0.047327 0.264295 0.154327
0.005157 0.327293 0.209918
0.073961 0.287113 0.199999
0.010221 0.387208 0.190234
0.053826 0.345400 0.195815
0.004370 0.194362 0.249642
0.036690 0.151115 0.248546
0.109008 0.382984 0.253428
0.039707 0.263529 0.241624
0.014091 0.222339 0.293744
0.053807 0.191595 0.267978
0.011376 0.364299 0.282854
0.056937 0.315147 0.292025
0.037397 0.124282 0.322135
0.012474 0.135000 0.364849
0.007279 0.281808 0.304819
0.058180 0.199725 0.311900
0.051342 0.129411 0.099911
0.195932 0.099969 0.027112
0.147637 0.098299 0.084299
0.179546 0.193389 0.139088
0.017565 0.076000 0.057462
0.196404 0.069924 0.100073
0.114662 0.074166 0.054725
0.168980 0.196747 0.083632
0.100969 0.091512 0.099917
0.170070 0.068096 0.054881
0.155074 0.072696 0.167983
0.199940 0.083812 0.151049
0.076677 0.062352 0.160939
0.190331 0.087434 0.199982
0.143404 0.094916 0.207922
0.199446 0.199899 0.199504
0.102418 0.068034 0.200038
0.180669 0.130548 0.213485
0.140053 0.064957 0.247980
0.178807 0.096589 0.248458
0.104885 0.077329 0.310264
0.182146 0.094054 0.300012
0.145559 0.097205 0.330906
0.200848 0.131280 0.303480
0.061995 0.085796 0.339391
0.200825 0.079319 0.354352
0.121102 0.090692 0.400010
0.204584 0.099635 0.405874
0.096142 0.292285 0.478014
0.161146 0.098642 0.427837
0.142460 0.298861 0.501691
0.189375 0.167470 0.487980
0.146190 0.096376 0.021196
0.201645 0.152132 0.070990
0.114532 0.214671 0.015192
0.168660 0.217325 0.100067
0.157923 0.138363 0.037839
0.181894 0.156329 0.106297
0.128280 0.171223 0.005308
0.144471 0.144408 0.082691
0.121773 0.228435 0.118759
0.159272 0.099963 0.129122
0.110943 0.293691 0.124994
0.163863 0.262827 0.117791
0.142352 0.117467 0.183602
0.186775 0.127959 0.163998
0.116246 0.251402 0.162052
0.157061 0.178881 0.178955
0.145515 0.199825 0.203850
0.177208 0.178992 0.233456
0.117006 0.292365 0.209259
0.175156 0.271459 0.206784
0.139157 0.099970 0.282081
0.211033 0.177924 0.289800
0.099637 0.199839 0.254365
0.170529 0.147541 0.269963
0.163505 0.182903 0.302414
0.164790 0.097853 0.378766
0.139186 0.199937 0.291524
0.200060 0.199895 0.303346
0.095291 0.292169 0.425726
0.140441 0.121381 0.462405
0.138396 0.168891 0.411575
0.184145 0.176446 0.393628
0.118186 0.348032 0.105704
0.161195 0.254606 0.020283
0.102200 0.397476 0.004024
0.150764 0.376122 0.000212
0.105801 0.289843 0.061625
0.148836 0.194082 0.043408
0.100804 0.375866 0.062019
0.152771 0.297141 0.047504
0.116476 0.398407 0.116797
0.171580 0.324174 0.110417
0.113011 0.465452 0.096469
0.153414 0.374365 0.081523
0.109358 0.321442 0.167743
0.158059 0.287143 0.162122
0.058854 0.325390 0.146520
0.148658 0.365821 0.143536
0.099797 0.379891 0.204428
0.151431 0.349182 0.190686
0.102143 0.473077 0.197142
0.150476 0.399270 0.197707
0.103404 0.301756 0.255663
0.152447 0.267911 0.251268
0.058368 0.317202 0.242087
0.162511 0.359015 0.238377
0.104243 0.279223 0.301041
0.184231 0.298354 0.291491
0.097298 0.394693 0.300005
0.173188 0.394623 0.276295
0.132449 0.130829 0.376686
0.172372 0.131969 0.344279
0.100163 0.336674 0.311255
0.138839 0.331780 0.279594
0.243279 0.086249 0.028474
0.275473 0.103035 0.100016
0.259545 0.145746 0.145426
0.308810 0.098341 0.041198
0.200162 0.115414 0.027170
0.316857 0.113876 0.115010
0.199972 0.113154 0.107856
0.341895 0.099965 0.007815
0.212037 0.062983 0.080846
0.259924 0.073527 0.075032
0.246911 0.069379 0.122707
0.316421 0.084692 0.154896
0.233025 0.094923 0.191417
0.273382 0.068797 0.181774
0.229069 0.142656 0.185533
0.302745 0.168124 0.223075
0.218607 0.067288 0.240457
0.300263 0.093142 0.200042
0.267363 0.065832 0.229823
0.300027 0.099917 0.245359
0.216028 0.099989 0.277748
0.297677 0.099933 0.294339
0.250491 0.128507 0.298442
0.322318 0.186377 0.325184
0.233427 0.094516 0.322145
0.281155 0.078446 0.311950
0.244718 0.088976 0.375897
0.293376 0.092218 0.379646
0.213035 0.099328 0.456951
0.261118 0.099230 0.471414
0.233445 0.124493 0.499643
0.293047 0.158310 0.498340
0.241421 0.136783 0.100279
0.287702 0.151509 0.100068
0.222045 0.170959 0.124031
0.284044 0.099869 0.044851
0.213219 0.199797 0.088606
0.223889 0.105438 0.068386
0.198170 0.193362 0.032904
0.256692 0.192189 0.078322
0.222853 0.190864 0.162605
0.276722 0.099981 0.145415
0.213667 0.268662 0.114562
0.259629 0.199758 0.125819
0.229985 0.107853 0.145087
0.270141 0.115170 0.199987
0.201763 0.232929 0.166259
0.264134 0.177503 0.181662
0.227101 0.110504 0.223786
0.256394 0.154923 0.225148
0.224715 0.193881 0.213558
0.257889 0.218387 0.199984
0.214508 0.151853 0.248406
0.288792 0.155761 0.265889
0.192475 0.217330 0.257973
0.259295 0.099646 0.262914
0.215416 0.124098 0.364383
0.270980 0.113896 0.343042
0.238352 0.157344 0.334981
0.276516 0.181924 0.305802
0.183565 0.148728 0.439371
0.296956 0.091339 0.439352
0.250694 0.099076 0.423398
0.292878 0.114568 0.399956
0.203936 0.336085 0.011310
0.242553 0.185927 0.010781
0.196868 0.394877 0.012068
0.252014 0.380586 0.111160
0.197351 0.296223 0.070249
0.248516 0.143870 0.051614
0.197272 0.371416 0.057770
0.240082 0.252354 0.037781
0.202198 0.391158 0.100034
0.250978 0.302121 0.106893
0.198917 0.472087 0.103038
0.240450 0.304431 0.058425
0.194456 0.346616 0.150909
0.248359 0.243181 0.151506
0.197884 0.400026 0.151868
0.241393 0.361389 0.159814
0.202592 0.371349 0.199895
0.251572 0.283873 0.202115
0.281506 0.375643 0.294480
0.267665 0.326380 0.236467
0.207892 0.286567 0.246346
0.249481 0.190487 0.264310
0.220113 0.333118 0.251758
0.199989 0.397529 0.202198
0.202070 0.192438 0.350247
0.255158 0.148624 0.380862
0.216172 0.291004 0.339429
0.150606 0.288915 0.328019
0.214024 0.175785 0.400155
0.290039 0.194124 0.399955
0.203670 0.374932 0.300083
0.189989 0.213636 0.365693
0.351529 0.082609 0.124319
0.435997 0.099031 0.098233
0.418019 0.169165 0.113413
0.466402 0.130577 0.083162
0.303103 0.094552 0.096678
0.429998 0.099328 0.000902
0.399945 0.088700 0.063104
0.470303 0.099631 0.034154
0.358945 0.070345 0.044221
0.504228 0.274274 0.084465
0.387613 0.099932 0.100780
0.498059 0.159590 0.122646
0.347563 0.082558 0.190953
0.435995 0.093355 0.173228
0.433128 0.098822 0.220883
0.510270 0.294250 0.200029
0.345525 0.087806 0.242996
0.479659 0.099897 0.207212
0.403482 0.092177 0.257557
0.506207 0.298065 0.249718
0.316628 0.091954 0.290843
0.411212 0.100710 0.299765
0.402651 0.082979 0.311573
0.492072 0.165196 0.295377
0.315560 0.099880 0.338375
0.462925 0.086758 0.319075
0.390480 0.081296 0.370350
0.484515 0.099997 0.362120
0.332254 0.099756 0.471353
0.402443 0.249240 0.410900
0.371558 0.125549 0.446972
0.450497 0.292790 0.405014
0.345362 0.102569 0.074454
0.425720 0.109758 0.047206
0.298784 0.199903 0.099989
0.372601 0.134475 0.037748
0.324283 0.146714 0.026833
0.400554 0.179836 0.002190
0.306280 0.136097 0.071930
0.400005 0.177891 0.069917
0.308594 0.149791 0.147649
0.460235 0.100687 0.132507
0.301151 0.199394 0.148239
0.407275 0.099836 0.135188
0.386617 0.098197 0.167065
0.484607 0.135724 0.170153
0.305076 0.199888 0.194060
0.392293 0.179654 0.170686
0.343498 0.177366 0.175066
0.436200 0.138509 0.183273
0.332013 0.132290 0.237818
0.385286 0.098787 0.213865
0.364901 0.094058 0.288120
0.462485 0.099813 0.260416
0.337977 0.159063 0.281302
0.383071 0.168243 0.302819
0.301397 0.153794 0.361966
0.448787 0.127029 0.311395
0.342719 0.089782 0.378290
0.437301 0.096719 0.373420
0.310023 0.141805 0.437269
0.412546 0.296735 0.454049
0.356989 0.093170 0.426038
0.400658 0.299650 0.404696
0.296261 0.208066 0.006250
0.327818 0.195724 0.107299
0.283401 0.351681 0.009950
0.302859 0.285875 0.006362
0.280265 0.178992 0.040550
0.362839 0.163871 0.099657
0.290453 0.305042 0.057616
0.310638 0.199958 0.056999
0.300002 0.298649 0.111581
0.356080 0.126174 0.143366
0.299200 0.392888 0.098463
0.320205 0.322817 0.098373
0.294259 0.273433 0.168726
0.315691 0.118508 0.190615
0.283048 0.391673 0.175404
0.285753 0.341115 0.141885
0.368741 0.142715 0.206518
0.409467 0.170653 0.221854
0.313385 0.270418 0.247936
0.299180 0.312221 0.200087
0.378458 0.121505 0.254212
0.418859 0.144002 0.269425
0.311938 0.312887 0.184838
0.380841 0.274599 0.196181
0.363040 0.099762 0.334668
0.404410 0.114565 0.345976
0.201672 0.329309 0.392377
0.353748 0.142276 0.353156
0.331790 0.131299 0.395679
0.382338 0.123660 0.389683
0.277141 0.284965 0.392298
0.389249 0.189753 0.391447

CELL_TYPES 384
1
1
1
1
1
1
1
1
1
1
1
1
1
1
1
1
1
1
1
1
1
1
1
1
1
1
1
1
1
1
1
1
1
1
1
1
1
1
1
1
1
1
1
1
1
1
1
1
1
1
1
1
1
1
1
1
1
1
1
1
1
1
1
1
1
1
1
1
1
1
1
1
1
1
1
1
1
1
1
1
1
1
1
1
1
1
1
1
1
1
1
1
1
1
1
1
1
1
1
1
1
1
1
1
1
1
1
1
1
1
1
1
1
1
1
1
1
1
1
1
1
1
1
1
1
1
1
1
1
1
1
1
1
1
1
1
1
1
1
1
1
1
1
1
1
1
1
1
1
1
1
1
1
1
1
1
1
1
1
1
1
1
1
1
1
1
1
1
1
1
1
1
1
1
1
1
1
1
1
1
1
1
1
1
1
1
1
1
1
1
1
1
1
1
1
1
1
1
1
1
1
1
1
1
1
1
1
1
1
1
1
1
1
1
1
1
1
1
1
1
1
1
1
1
1
1
1
1
1
1
1
1
1
1
1
1
1
1
1
1
1
1
1
1
1
1
1
1
1
1
1
1
1
1
1
1
1
1
1
1
1
1
1
1
1
1
1
1
1
1
1
1
1
1
1
1
1
1
1
1
1
1
1
1
1
1
1
1
1
1
1
1
1
1
1
1
1
1
1
1
1
1
1
1
1
1
1
1
1
1
1
1
1
1
1
1
1
1
1
1
1
1
1
1
1
1
1
1
1
1
1
1
1
1
1
1
1
1
1
1
1
1
1
1
1
1
1
1
1
1
1
1
1
1
1
1
1
1
1
1
1
1
1
1
1
1
1
1
1
1
1
1
1
1
1
1
1
1
1
1
1
1
1
1

POINT_DATA 384
SCALARS radius float
LOOKUP_TABLE default
0.5
0.5
0.5
0.5
0.5
0.5
0.5
0.5
0.5
0.5
0.5
0.5
0.5
0.5
0.5
0.5
0.5
0.5
0.5
0.5
0.5
0.5
0.5
0.5
0.5
0.5
0.5
0.5
0.5
0.5
0.5
0.5
0.5
0.5
0.5
0.5
0.5
0.5
0.5
0.5
0.5
0.5
0.5
0.5
0.5
0.5
0.5
0.5
0.5
0.5
0.5
0.5
0.5
0.5
0.5
0.5
0.5
0.5
0.5
0.5
0.5
0.5
0.5
0.5
0.5
0.5
0.5
0.5
0.5
0.5
0.5
0.5
0.5
0.5
0.5
0.5
0.5
0.5
0.5
0.5
0.5
0.5
0.5
0.5
0.5
0.5
0.5
0.5
0.5
0.5
0.5
0.5
0.5
0.5
0.5
0.5
0.5
0.5
0.5
0.5
0.5
0.5
0.5
0.5
0.5
0.5
0.5
0.5
0.5
0.5
0.5
0.5
0.5
0.5
0.5
0.5
0.5
0.5
0.5
0.5
0.5
0.5
0.5
0.5
0.5
0.5
0.5
0.5
0.5
0.5
0.5
0.5
0.5
0.5
0.5
0.5
0.5
0.5
0.5
0.5
0.5
0.5
0.5
0.5
0.5
0.5
0.5
0.5
0.5
0.5
0.5
0.5
0.5
0.5
0.5
0.5
0.5
0.5
0.5
0.5
0.5
0.5
0.5
0.5
0.5
0.5
0.5
0.5
0.5
0.5
0.5
0.5
0.5
0.5
0.5
0.5
0.5
0.5
0.5
0.5
0.5
0.5
0.5
0.5
0.5
0.5
0.5
0.5
0.5
0.5
0.5
0.5
0.5
0.5
0.5
0.5
0.5
0.5
0.5
0.5
0.5
0.5
0.5
0.5
0.5
0.5
0.5
0.5
0.5
0.5
0.5
0.5
0.5
0.5
0.5
0.5
0.5
0.5
0.5
0.5
0.5
0.5
0.5
0.5
0.5
0.5
0.5
0.5
0.5
0.5
0.5
0.5
0.5
0.5
0.5
0.5
0.5
0.5
0.5
0.5
0.5
0.5
0.5
0.5
0.5
0.5
0.5
0.5
0.5
0.5
0.5
0.5
0.5
0.5
0.5
0.5
0.5
0.5
0.5
0.5
0.5
0.5
0.5
0.5
0.5
0.5
0.5
0.5
0.5
0.5
0.5
0.5
0.5
0.5
0.5
0.5
0.5
0.5
0.5
0.5
0.5
0.5
0.5
0.5
0.5
0.5
0.5
0.5
0.5
0.5
0.5
0.5
0.5
0.5
0.5
0.5
0.5
0.5
0.5
0.5
0.5
0.5
0.5
0.5
0.5
0.5
0.5
0.5
0.5
0.5
0.5
0.5
0.5
0.5
0.5
0.5
0.5
0.5
0.5
0.5
0.5
0.5
0.5
0.5
0.5
0.5
0.5
0.5
0.5
0.5
0.5
0.5
0.5
0.5
0.5
0.5
0.5
0.5
0.5
0.5
0.5
0.5
0.5
0.5
0.5
0.5
0.5
0.5
0.5
0.5
0.5
0.5
0.5
0.5
0.5
0.5
0.5
0.5
0.5
0.5
0.5
0.5
0.5
0.5
0.5
0.5
0.5
0.5
0.5
0.5
0.5
0.5
0.5
0.5
0.5
0.5
0.5
0.5
0.5
0.5
0.5
0.5
0.5
0.5
