# vtk DataFile Version 2.0
Title Data
ASCII
DATASET UNSTRUCTURED_GRID
POINTS 384 float
0.138047 0.071557 0.088356
0.064996 0.045095 0.050231
0.088367 0.099613 0.096712
0.144298 0.120826 0.144714
0.096517 0.049835 0.087389
0.059831 0.020587 0.099650
0.072344 0.180060 0.066948
0.023238 0.093908 0.148137
0.147382 0.025287 0.098865
0.016273 0.043081 0.090725
0.086316 0.047083 0.133738
0.064975 0.062482 0.173788
0.085516 0.047573 0.215943
0.077889 0.095637 0.199835
0.035994 0.018996 0.202170
0.072134 0.099460 0.142908
0.007642 0.030268 0.247964
0.058597 0.027898 0.254818
0.145844 0.064101 0.239070
0.136059 0.107064 0.224902
0.068952 0.034068 0.302519
0.100005 0.074179 0.295592
0.019758 0.040786 0.296395
0.084602 0.008230 0.342921
0.102546 0.053570 0.351364
0.122208 0.099546 0.330554
0.072156 0.046262 0.393408
0.022501 0.045010 0.393545
0.107184 0.050473 0.459943
0.106657 0.150602 0.399872
0.092695 0.070577 0.531009
0.032918 0.099734 0.492002
0.036168 0.005796 0.058345
0.107162 0.088451 0.002768
0.010466 0.120147 0.109897
0.095673 0.108688 0.009693
0.055051 0.083414 0.001064
0.003420 0.099998 0.070699
0.098654 0.081696 0.051023
0.049423 0.090858 0.052450
0.133098 0.075677 0.154264
0.099465 0.139323 0.200025
0.086849 0.131535 0.105495
0.107469 0.085758 0.111297
0.012326 0.057466 0.179021
0.130246 0.028904 0.145183
0.120906 0.082867 0.200025
0.036898 0.047952 0.135793
0.107198 0.036322 0.259794
0.097049 0.185860 0.199921
0.050127 0.127155 0.216806
0.000441 0.118217 0.202129
0.056152 0.079018 0.268478
0.015400 0.090219 0.294387
0.099975 0.079965 0.248079
0.038743 0.062098 0.225717
0.038956 0.080155 0.363800
0.095051 0.105242 0.302014
0.134765 0.099979 0.271976
0.058042 0.078278 0.318041
0.049452 0.077701 0.447405
0.104358 0.099727 0.454653
0.018369 0.099750 0.409826
0.065147 0.099880 0.400099
0.015334 0.180241 0.015390
0.047951 0.130138 0.079263
0.004823 0.244459 0.004816
0.023027 0.181366 0.070216
0.092471 0.128221 0.054942
0.010220 0.091552 0.020985
0.065041 0.178719 0.018146
0.042797 0.128107 0.022561
0.000264 0.191028 0.124312
0.042855 0.163397 0.115500
0.008512 0.245267 0.094277
0.062217 0.203655 0.100003
0.100141 0.110996 0.165788
0.032073 0.099957 0.196158
0.100923 0.271865 0.171481
0.047788 0.133037 0.164606
0.003636 0.201312 0.214552
0.026435 0.165286 0.198875
0.011441 0.260960 0.185704
0.053993 0.199905 0.200176
0.092655 0.109821 0.255756
0.014007 0.099661 0.245891
0.110422 0.238998 0.250370
0.016107 0.148374 0.245008
0.014868 0.160318 0.293230
0.048235 0.124700 0.282250
0.011376 0.230370 0.282854
0.053170 0.195808 0.298702
0.000068 0.099913 0.340329
0.084050 0.098618 0.356617
0.100006 0.141296 0.344854
0.045079 0.119287 0.336303
0.042144 0.083966 0.101280
0.191117 0.043817 0.005733
0.180286 0.051808 0.072134
0.188962 0.138537 0.152011
0.006247 0.046787 0.042125
0.199044 0.014191 0.101451
0.116404 0.036365 0.044192
0.161654 0.114058 0.063998
0.107316 0.103043 0.128565
0.163595 0.021591 0.041049
0.161334 0.007373 0.175794
0.202893 0.017109 0.151741
0.073339 0.014825 0.169390
0.198850 0.028113 0.200020
0.136368 0.024226 0.214600
0.194587 0.140291 0.200176
0.099839 0.099996 0.215462
0.192454 0.090932 0.201143
0.146039 0.006884 0.262463
0.183823 0.035205 0.248313
0.115606 0.018761 0.305180
0.190140 0.038428 0.300142
0.147564 0.042126 0.334532
0.204144 0.081341 0.319030
0.040455 0.035608 0.343190
0.193829 0.031158 0.348980
0.124296 0.053594 0.395836
0.200084 0.047964 0.415389
0.081460 0.099628 0.494522
0.155848 0.053159 0.437907
0.139102 0.098877 0.529083
0.187555 0.099095 0.503016
0.140831 0.050797 0.000436
0.198417 0.087532 0.042925
0.118999 0.165384 0.068734
0.183024 0.137608 0.101825
0.179101 0.084201 0.094925
0.171352 0.099993 0.121747
0.100067 0.102634 0.092019
0.147377 0.074560 0.042063
0.130436 0.152842 0.113371
0.172883 0.053622 0.137285
0.099805 0.189782 0.123844
0.168609 0.175002 0.135166
0.161572 0.056552 0.187756
0.199103 0.092592 0.155125
0.115632 0.158117 0.159432
0.163247 0.104470 0.185426
0.146762 0.147860 0.205182
0.177680 0.099975 0.247332
0.122174 0.194283 0.221619
0.188202 0.188136 0.214869
0.145517 0.053838 0.286657
0.226550 0.120303 0.301350
0.085717 0.155477 0.243763
0.199870 0.099898 0.296270
0.162056 0.097892 0.307766
0.172475 0.048818 0.390217
0.133637 0.136437 0.301336
0.195555 0.153494 0.321280
0.099956 0.076793 0.416992
0.144130 0.099837 0.480426
0.143324 0.099926 0.425692
0.184465 0.095065 0.399898
0.115532 0.225124 0.100017
0.163330 0.176227 0.087142
0.102200 0.285665 0.004024
0.150764 0.220041 0.000212
0.112511 0.191422 0.021840
0.143313 0.116982 0.018916
0.099981 0.217194 0.056816
0.162941 0.156428 0.041394
0.124990 0.272083 0.127668
0.195331 0.200045 0.100906
0.110427 0.294613 0.084294
0.147296 0.200414 0.053518
0.100048 0.200943 0.173647
0.151723 0.188044 0.180712
0.065280 0.178029 0.157003
0.133245 0.202377 0.139147
0.099726 0.277430 0.204075
0.153903 0.221953 0.200007
0.102143 0.363483 0.197142
0.150254 0.282572 0.197686
0.102618 0.195338 0.266789
0.143315 0.144963 0.254442
0.053011 0.192317 0.249114
0.157117 0.196042 0.252964
0.092449 0.163151 0.300034
0.189613 0.196022 0.289691
0.096484 0.272802 0.299999
0.173188 0.250259 0.276295
0.132169 0.099909 0.378312
0.169523 0.081161 0.353079
0.101046 0.198362 0.334547
0.140276 0.193103 0.299609
0.248019 0.043870 0.103334
0.295972 0.043580 0.100063
0.256095 0.090289 0.125705
0.316595 0.038014 0.017362
0.200940 0.100010 0.088519
0.301911 0.086309 0.118039
0.203605 0.062906 0.100548
0.341153 0.053147 0.084510
0.206639 0.014668 0.088427
0.259088 0.016812 0.063945
0.250158 0.009199 0.138462
0.325074 0.041931 0.152385
0.245410 0.031103 0.183822
0.292834 0.013231 0.179195
0.225274 0.075162 0.189757
0.300407 0.092125 0.211346
0.225723 0.008748 0.256432
0.301845 0.038536 0.200763
0.265188 0.019518 0.227631
0.305022 0.052328 0.248755
0.213768 0.045890 0.286571
0.300030 0.065770 0.297584
0.246682 0.084911 0.296358
0.320515 0.099897 0.330346
0.236919 0.049966 0.331504
0.274702 0.026286 0.311127
0.253819 0.039330 0.385596
0.301371 0.031256 0.373875
0.227012 0.097052 0.475799
0.275920 0.099792 0.481387
0.231844 0.099617 0.525250
0.300044 0.099768 0.512754
0.239255 0.077876 0.069306
0.291266 0.091781 0.095542
0.211519 0.099977 0.132574
0.265731 0.054852 0.032858
0.212488 0.134122 0.059335
0.219230 0.040509 0.046207
0.199988 0.124556 0.012155
0.275775 0.099994 0.050088
0.226532 0.120891 0.174615
0.276932 0.050051 0.148585
0.214707 0.166934 0.120474
0.282718 0.131013 0.126560
0.228838 0.056590 0.145552
0.284650 0.057074 0.199973
0.200027 0.181412 0.175363
0.266715 0.099954 0.186299
0.226174 0.049349 0.229265
0.259412 0.084216 0.231976
0.216968 0.100185 0.216796
0.275849 0.128219 0.218884
0.220132 0.085689 0.259597
0.296857 0.099453 0.261194
0.188297 0.140263 0.273904
0.258783 0.049289 0.266369
0.216273 0.068253 0.373050
0.280754 0.067297 0.346833
0.244135 0.099879 0.341976
0.281814 0.099934 0.309605
0.184023 0.099755 0.452947
0.280041 0.050533 0.459196
0.256744 0.088293 0.436738
0.308240 0.053083 0.418125
0.204173 0.197805 0.010029
0.245559 0.116165 0.098203
0.196754 0.276144 0.012099
0.251397 0.234188 0.112652
0.207764 0.195797 0.068951
0.237497 0.089659 0.012002
0.199729 0.213487 0.055583
0.249041 0.133920 0.026226
0.202200 0.287827 0.100032
0.254649 0.187959 0.105620
0.198915 0.363716 0.103040
0.252321 0.173385 0.058189
0.199749 0.203529 0.157263
0.248949 0.155655 0.150693
0.197884 0.283544 0.151868
0.245027 0.199875 0.170219
0.202820 0.267955 0.199684
0.241944 0.183002 0.214399
0.281506 0.224230 0.294480
0.278771 0.177618 0.246095
0.222045 0.146447 0.239298
0.254461 0.120205 0.262878
0.232856 0.191758 0.265032
0.199984 0.297887 0.202430
0.200035 0.109671 0.356737
0.254423 0.099921 0.388562
0.230184 0.148387 0.357092
0.150597 0.157014 0.342352
0.214227 0.099876 0.414894
0.300008 0.099918 0.404575
0.203670 0.216452 0.300083
0.166711 0.134641 0.382466
0.363593 0.033144 0.122735
0.452358 0.050837 0.074519
0.463978 0.099795 0.109492
0.499970 0.098975 0.076911
0.301265 0.021524 0.090181
0.452351 0.099855 0.061695
0.401746 0.051836 0.066092
0.487219 0.099179 0.026682
0.365231 0.039137 0.031213
0.504311 0.135472 0.084608
0.396631 0.068958 0.117390
0.524289 0.099969 0.118857
0.358214 0.026492 0.198922
0.451256 0.045192 0.175797
0.456230 0.064742 0.229540
0.510270 0.294250 0.200029
0.353644 0.041007 0.246423
0.494685 0.099997 0.219734
0.410122 0.055221 0.257464
0.506207 0.298065 0.249718
0.330365 0.028514 0.288408
0.415506 0.098171 0.300746
0.412983 0.043554 0.308931
0.507303 0.099971 0.300418
0.327034 0.050795 0.336078
0.480279 0.054926 0.330773
0.403659 0.047845 0.381124
0.489217 0.099861 0.361379
0.344653 0.097092 0.490389
0.402607 0.122034 0.410154
0.385272 0.099933 0.461468
0.450508 0.148025 0.405013
0.358715 0.085718 0.043129
0.437747 0.099219 0.012882
0.299917 0.183213 0.094365
0.385597 0.099971 0.003884
0.333728 0.099969 0.096157
0.416643 0.099860 0.100018
0.308859 0.068916 0.053584
0.404891 0.099775 0.050123
0.303921 0.088739 0.163352
0.489638 0.065799 0.134320
0.328791 0.121871 0.140755
0.436958 0.079532 0.143911
0.384053 0.052170 0.164164
0.503143 0.099440 0.168746
0.322123 0.129535 0.199982
0.400065 0.099892 0.167002
0.360080 0.107938 0.177122
0.456690 0.099696 0.186699
0.342912 0.088013 0.237012
0.400745 0.053015 0.208401
0.372590 0.055556 0.290503
0.494432 0.085784 0.268108
0.339198 0.095362 0.285430
0.371237 0.099802 0.320762
0.303724 0.099935 0.376014
0.461356 0.099899 0.319962
0.347991 0.050489 0.381623
0.448786 0.093440 0.390085
0.314848 0.099857 0.450954
0.412941 0.141383 0.455738
0.361213 0.057244 0.436789
0.400176 0.188996 0.403114
0.299551 0.136697 0.080216
0.357813 0.110563 0.100045
0.279938 0.197945 0.003874
0.311394 0.151940 0.006189
0.286612 0.098984 0.002290
0.373495 0.099935 0.087243
0.301718 0.182114 0.045608
0.320832 0.113588 0.042137
0.321187 0.199538 0.111545
0.352852 0.079967 0.137774
0.299200 0.279365 0.098463
0.350208 0.160702 0.091471
0.286939 0.158363 0.181043
0.338178 0.069526 0.191273
0.281939 0.253739 0.174114
0.286623 0.197139 0.146193
0.375677 0.099937 0.203663
0.421496 0.099744 0.221690
0.304198 0.110033 0.255707
0.299859 0.199909 0.204577
0.386893 0.099893 0.261753
0.447279 0.099910 0.263690
0.334013 0.185608 0.189059
0.380841 0.167373 0.196181
0.376207 0.054958 0.340547
0.419516 0.099780 0.350219
0.201672 0.191710 0.392377
0.352505 0.097478 0.365845
0.348604 0.099828 0.414531
0.401562 0.078814 0.418903
0.274737 0.162702 0.390871
0.393579 0.099931 0.392741

CELL_TYPES 384
1
1
1
1
1
1
1
1
1
1
1
1
1
1
1
1
1
1
1
1
1
1
1
1
1
1
1
1
1
1
1
1
1
1
1
1
1
1
1
1
1
1
1
1
1
1
1
1
1
1
1
1
1
1
1
1
1
1
1
1
1
1
1
1
1
1
1
1
1
1
1
1
1
1
1
1
1
1
1
1
1
1
1
1
1
1
1
1
1
1
1
1
1
1
1
1
1
1
1
1
1
1
1
1
1
1
1
1
1
1
1
1
1
1
1
1
1
1
1
1
1
1
1
1
1
1
1
1
1
1
1
1
1
1
1
1
1
1
1
1
1
1
1
1
1
1
1
1
1
1
1
1
1
1
1
1
1
1
1
1
1
1
1
1
1
1
1
1
1
1
1
1
1
1
1
1
1
1
1
1
1
1
1
1
1
1
1
1
1
1
1
1
1
1
1
1
1
1
1
1
1
1
1
1
1
1
1
1
1
1
1
1
1
1
1
1
1
1
1
1
1
1
1
1
1
1
1
1
1
1
1
1
1
1
1
1
1
1
1
1
1
1
1
1
1
1
1
1
1
1
1
1
1
1
1
1
1
1
1
1
1
1
1
1
1
1
1
1
1
1
1
1
1
1
1
1
1
1
1
1
1
1
1
1
1
1
1
1
1
1
1
1
1
1
1
1
1
1
1
1
1
1
1
1
1
1
1
1
1
1
1
1
1
1
1
1
1
1
1
1
1
1
1
1
1
1
1
1
1
1
1
1
1
1
1
1
1
1
1
1
1
1
1
1
1
1
1
1
1
1
1
1
1
1
1
1
1
1
1
1
1
1
1
1
1
1
1
1
1
1
1
1
1
1
1
1
1
1
1
1
1
1
1
1

POINT_DATA 384
SCALARS radius float
LOOKUP_TABLE default
0.5
0.5
0.5
0.5
0.5
0.5
0.5
0.5
0.5
0.5
0.5
0.5
0.5
0.5
0.5
0.5
0.5
0.5
0.5
0.5
0.5
0.5
0.5
0.5
0.5
0.5
0.5
0.5
0.5
0.5
0.5
0.5
0.5
0.5
0.5
0.5
0.5
0.5
0.5
0.5
0.5
0.5
0.5
0.5
0.5
0.5
0.5
0.5
0.5
0.5
0.5
0.5
0.5
0.5
0.5
0.5
0.5
0.5
0.5
0.5
0.5
0.5
0.5
0.5
0.5
0.5
0.5
0.5
0.5
0.5
0.5
0.5
0.5
0.5
0.5
0.5
0.5
0.5
0.5
0.5
0.5
0.5
0.5
0.5
0.5
0.5
0.5
0.5
0.5
0.5
0.5
0.5
0.5
0.5
0.5
0.5
0.5
0.5
0.5
0.5
0.5
0.5
0.5
0.5
0.5
0.5
0.5
0.5
0.5
0.5
0.5
0.5
0.5
0.5
0.5
0.5
0.5
0.5
0.5
0.5
0.5
0.5
0.5
0.5
0.5
0.5
0.5
0.5
0.5
0.5
0.5
0.5
0.5
0.5
0.5
0.5
0.5
0.5
0.5
0.5
0.5
0.5
0.5
0.5
0.5
0.5
0.5
0.5
0.5
0.5
0.5
0.5
0.5
0.5
0.5
0.5
0.5
0.5
0.5
0.5
0.5
0.5
0.5
0.5
0.5
0.5
0.5
0.5
0.5
0.5
0.5
0.5
0.5
0.5
0.5
0.5
0.5
0.5
0.5
0.5
0.5
0.5
0.5
0.5
0.5
0.5
0.5
0.5
0.5
0.5
0.5
0.5
0.5
0.5
0.5
0.5
0.5
0.5
0.5
0.5
0.5
0.5
0.5
0.5
0.5
0.5
0.5
0.5
0.5
0.5
0.5
0.5
0.5
0.5
0.5
0.5
0.5
0.5
0.5
0.5
0.5
0.5
0.5
0.5
0.5
0.5
0.5
0.5
0.5
0.5
0.5
0.5
0.5
0.5
0.5
0.5
0.5
0.5
0.5
0.5
0.5
0.5
0.5
0.5
0.5
0.5
0.5
0.5
0.5
0.5
0.5
0.5
0.5
0.5
0.5
0.5
0.5
0.5
0.5
0.5
0.5
0.5
0.5
0.5
0.5
0.5
0.5
0.5
0.5
0.5
0.5
0.5
0.5
0.5
0.5
0.5
0.5
0.5
0.5
0.5
0.5
0.5
0.5
0.5
0.5
0.5
0.5
0.5
0.5
0.5
0.5
0.5
0.5
0.5
0.5
0.5
0.5
0.5
0.5
0.5
0.5
0.5
0.5
0.5
0.5
0.5
0.5
0.5
0.5
0.5
0.5
0.5
0.5
0.5
0.5
0.5
0.5
0.5
0.5
0.5
0.5
0.5
0.5
0.5
0.5
0.5
0.5
0.5
0.5
0.5
0.5
0.5
0.5
0.5
0.5
0.5
0.5
0.5
0.5
0.5
0.5
0.5
0.5
0.5
0.5
0.5
0.5
0.5
0.5
0.5
0.5
0.5
0.5
0.5
0.5
0.5
0.5
0.5
0.5
0.5
0.5
0.5
0.5
0.5
0.5
0.5
0.5
0.5
0.5
0.5
0.5
0.5
0.5
0.5
0.5
0.5
0.5
0.5
0.5
0.5
0.5
0.5
0.5
0.5
