# vtk DataFile Version 2.0
Title Data
ASCII
DATASET UNSTRUCTURED_GRID
POINTS 384 float
0.066782 0.399454 0.088014
0.042419 0.355021 0.093774
0.100178 0.364766 0.096483
0.043144 0.399792 0.116459
0.096554 0.359998 0.029502
0.049190 0.353201 0.044406
0.105301 0.399643 0.052368
0.058901 0.399811 0.053487
0.132775 0.364382 0.125097
0.095318 0.333250 0.070448
0.075551 0.399838 0.138325
0.057469 0.356798 0.141213
0.073265 0.367695 0.186880
0.028101 0.348429 0.172809
0.101970 0.399898 0.201910
0.091282 0.410263 0.176783
0.084652 0.368125 0.245260
0.020643 0.361094 0.217926
0.112247 0.399666 0.234364
0.056204 0.394561 0.224204
0.055729 0.395759 0.269429
0.022937 0.363748 0.283811
0.099838 0.395137 0.284138
0.075679 0.399627 0.304669
0.107204 0.399858 0.320470
0.047936 0.374918 0.320462
0.021322 0.394092 0.350414
0.079062 0.393653 0.351752
0.099828 0.392734 0.384738
0.047415 0.375251 0.385613
0.022444 0.497169 0.422516
0.075095 0.497779 0.424179
0.088367 0.434594 0.100008
0.012118 0.399544 0.081140
0.012152 0.518213 0.012149
0.061593 0.497979 0.010069
0.073279 0.399604 0.009719
0.020745 0.399637 0.030474
0.010126 0.497887 0.061612
0.060272 0.486156 0.060199
0.108294 0.399931 0.140604
0.006597 0.399150 0.137560
0.016027 0.498915 0.111298
0.065220 0.485614 0.109938
0.044170 0.398954 0.167509
0.100041 0.399241 0.182447
0.009536 0.486938 0.159485
0.059833 0.438183 0.156758
0.097496 0.400721 0.219423
0.023240 0.399682 0.200518
0.018181 0.496752 0.207802
0.067582 0.489268 0.205241
0.099758 0.405769 0.265344
0.015965 0.399478 0.250103
0.008152 0.465625 0.250235
0.057885 0.439684 0.249433
0.099985 0.436215 0.332238
0.032159 0.403330 0.300182
0.100842 0.448184 0.289229
0.063704 0.477893 0.295067
0.094852 0.428643 0.378651
0.051830 0.399461 0.396234
0.000256 0.425726 0.346184
0.053392 0.410527 0.347165
0.015739 0.587245 0.015775
0.065262 0.574375 0.014880
0.004896 0.665400 0.004889
0.053486 0.644374 0.000175
0.014835 0.574540 0.065327
0.065467 0.560522 0.065387
0.000136 0.644406 0.053444
0.050037 0.599497 0.050011
0.014757 0.581510 0.114541
0.066300 0.562637 0.113969
0.012922 0.660258 0.100740
0.062127 0.640533 0.099275
0.023216 0.555837 0.160658
0.071762 0.543569 0.159870
0.001239 0.639505 0.148068
0.050734 0.597235 0.146074
0.013681 0.583362 0.205815
0.066960 0.570522 0.201822
0.017178 0.644209 0.195571
0.065869 0.622749 0.191812
0.025505 0.555647 0.248954
0.073890 0.543032 0.245835
0.004221 0.627225 0.241503
0.051622 0.598728 0.238080
0.021462 0.529991 0.291559
0.073003 0.526318 0.291974
0.019906 0.634187 0.289464
0.069291 0.623870 0.287369
0.024146 0.498753 0.329961
0.074902 0.499670 0.333019
0.016545 0.584755 0.317234
0.066886 0.579577 0.312824
0.100050 0.399840 0.098625
0.199548 0.368127 0.099997
0.142764 0.399533 0.069739
0.200175 0.399680 0.099986
0.087865 0.362537 0.111199
0.171342 0.352470 0.027145
0.136705 0.356557 0.059464
0.194736 0.399628 0.080040
0.116070 0.322842 0.106161
0.160706 0.342773 0.098732
0.152341 0.357189 0.153810
0.192104 0.355443 0.137322
0.103744 0.345307 0.157438
0.173319 0.325112 0.173953
0.135030 0.358853 0.193325
0.199643 0.399987 0.199884
0.100037 0.346372 0.208529
0.180422 0.358528 0.208694
0.142825 0.357548 0.239070
0.194518 0.399662 0.234149
0.108650 0.348556 0.273506
0.173508 0.347494 0.274302
0.140389 0.366132 0.297000
0.199905 0.399707 0.299717
0.097363 0.357635 0.322197
0.169344 0.372604 0.327899
0.128336 0.377402 0.347110
0.199994 0.387442 0.359656
0.110507 0.399003 0.400568
0.168224 0.362447 0.376484
0.148038 0.394916 0.440930
0.190882 0.448455 0.414278
0.131220 0.399887 0.107998
0.172982 0.398680 0.042252
0.111296 0.499986 0.016222
0.159341 0.487350 0.009404
0.135652 0.399788 0.015218
0.163117 0.399753 0.102377
0.109981 0.485744 0.065504
0.157700 0.436686 0.060128
0.115559 0.454445 0.104816
0.168671 0.399647 0.137664
0.113947 0.537790 0.114360
0.163195 0.529669 0.118121
0.136891 0.399754 0.168093
0.175569 0.399607 0.176314
0.118617 0.529081 0.164273
0.157474 0.495995 0.157262
0.125480 0.448535 0.199953
0.152734 0.399695 0.213733
0.115337 0.501236 0.205162
0.164905 0.502963 0.205256
0.138754 0.399961 0.257860
0.170120 0.399955 0.272641
0.103369 0.493513 0.251766
0.154333 0.458903 0.254121
0.134574 0.399781 0.300093
0.158074 0.407875 0.313317
0.130091 0.489665 0.291065
0.191798 0.444864 0.287115
0.118560 0.486309 0.399733
0.158069 0.393801 0.403313
0.140554 0.399340 0.361603
0.180541 0.403657 0.354703
0.114318 0.582672 0.014787
0.160639 0.558896 0.023410
0.100639 0.662819 0.012841
0.148177 0.643501 0.001218
0.113735 0.565193 0.066170
0.159318 0.545116 0.071616
0.099311 0.640656 0.061990
0.145710 0.598751 0.050600
0.109938 0.595745 0.109850
0.159550 0.593560 0.111515
0.103233 0.672842 0.103297
0.151680 0.643358 0.098345
0.111656 0.593357 0.159470
0.156567 0.567095 0.156084
0.098451 0.639881 0.151522
0.147508 0.620233 0.147509
0.115172 0.581939 0.206991
0.166688 0.580186 0.202166
0.113185 0.657941 0.199718
0.163379 0.653087 0.198890
0.116974 0.566082 0.254157
0.170370 0.555854 0.252025
0.102659 0.629923 0.246120
0.149728 0.599720 0.242418
0.122225 0.542246 0.296825
0.174407 0.531006 0.294567
0.118159 0.633539 0.294411
0.167328 0.625231 0.289758
0.121892 0.491730 0.335612
0.171296 0.475423 0.327555
0.114365 0.580603 0.325936
0.165990 0.573676 0.316959
0.245791 0.372326 0.085639
0.274481 0.376721 0.059606
0.233251 0.399761 0.112801
0.289463 0.399139 0.099913
0.215474 0.366780 0.012251
0.290019 0.369488 0.016982
0.222680 0.381065 0.055620
0.301570 0.399742 0.074805
0.207354 0.349623 0.096138
0.274472 0.352246 0.110167
0.237149 0.357945 0.140791
0.297342 0.369891 0.143793
0.208107 0.358698 0.180490
0.270965 0.347549 0.171357
0.233867 0.399689 0.195225
0.299703 0.399810 0.199828
0.225032 0.357229 0.223727
0.272230 0.359743 0.216369
0.242496 0.395273 0.242417
0.285964 0.399977 0.238772
0.217744 0.359958 0.270855
0.272356 0.357917 0.271822
0.239432 0.399468 0.285653
0.299836 0.395775 0.299777
0.218900 0.366163 0.319885
0.272233 0.358834 0.320924
0.246120 0.368446 0.359951
0.298962 0.376923 0.356285
0.207206 0.396604 0.400390
0.278041 0.399878 0.398270
0.231084 0.397993 0.442739
0.291183 0.437221 0.434028
0.222635 0.410513 0.086226
0.267455 0.403630 0.100038
0.207555 0.496713 0.018590
0.249932 0.466916 0.008555
0.201507 0.399718 0.028496
0.252295 0.399743 0.024132
0.205374 0.489442 0.068018
0.249605 0.444938 0.058182
0.199999 0.427175 0.128893
0.258490 0.399916 0.135934
0.205396 0.503730 0.115669
0.252151 0.495620 0.103421
0.214555 0.399558 0.153995
0.270914 0.399581 0.169346
0.205294 0.507067 0.165268
0.254166 0.459607 0.154247
0.214247 0.415215 0.214433
0.260627 0.399833 0.204566
0.213561 0.500539 0.213680
0.260911 0.496847 0.199563
0.204534 0.399731 0.260226
0.273790 0.399826 0.273671
0.199570 0.495906 0.260805
0.247985 0.474862 0.247955
0.200073 0.399842 0.311697
0.254838 0.399300 0.318358
0.225616 0.457902 0.319150
0.287691 0.465773 0.308626
0.203921 0.420975 0.399892
0.249713 0.388578 0.403087
0.229821 0.399297 0.356975
0.276734 0.399176 0.353044
0.206286 0.583095 0.013537
0.248475 0.556348 0.025949
0.195750 0.647935 0.016890
0.241238 0.626651 0.004283
0.202145 0.570356 0.067011
0.245080 0.544530 0.074937
0.192256 0.628056 0.065663
0.238138 0.598982 0.051729
0.207155 0.582815 0.115193
0.255075 0.569422 0.116469
0.199719 0.658576 0.113305
0.246210 0.632401 0.103030
0.202024 0.581640 0.167065
0.252518 0.558229 0.170599
0.198953 0.654362 0.163480
0.242036 0.599756 0.150156
0.213887 0.573123 0.213995
0.263058 0.560130 0.217911
0.203760 0.662009 0.203968
0.253254 0.645264 0.200913
0.217660 0.560021 0.263317
0.265466 0.539892 0.265601
0.199997 0.644392 0.253322
0.247345 0.597775 0.247774
0.211408 0.518364 0.335014
0.262070 0.498687 0.339395
0.216168 0.628999 0.299892
0.265976 0.625963 0.299738
0.215389 0.494779 0.377460
0.265964 0.482571 0.384380
0.207948 0.583780 0.354052
0.259066 0.567346 0.353881
0.320318 0.399428 0.102006
0.381728 0.399623 0.098871
0.349578 0.399273 0.025625
0.422786 0.497432 0.022255
0.319166 0.385954 0.046750
0.388345 0.384345 0.048169
0.351692 0.398803 0.076303
0.424640 0.498078 0.075198
0.324922 0.360700 0.097418
0.400134 0.398077 0.110317
0.347752 0.378699 0.128316
0.438759 0.411074 0.148812
0.328399 0.372790 0.169473
0.378424 0.363939 0.168859
0.358917 0.388919 0.199413
0.414529 0.469659 0.190684
0.320619 0.366084 0.218637
0.400471 0.395245 0.207313
0.360813 0.370182 0.246115
0.442762 0.395891 0.230854
0.321481 0.359339 0.271975
0.398662 0.395249 0.276619
0.356001 0.378979 0.299026
0.435588 0.437825 0.290295
0.309880 0.385363 0.310150
0.402290 0.384442 0.323337
0.342626 0.382613 0.343201
0.418127 0.448347 0.349158
0.325912 0.383310 0.402286
0.371744 0.363571 0.371273
0.349197 0.454821 0.418181
0.400092 0.499738 0.400375
0.333071 0.437550 0.100276
0.379110 0.448330 0.094421
0.286652 0.454270 0.101951
0.347016 0.441510 0.000529
0.302608 0.418820 0.033387
0.393965 0.413157 0.050571
0.295188 0.481986 0.064128
0.347719 0.429432 0.052921
0.300108 0.399911 0.129884
0.400028 0.463936 0.118608
0.290166 0.493057 0.133271
0.360232 0.399359 0.140950
0.312990 0.407911 0.156600
0.403896 0.393084 0.156056
0.285848 0.442444 0.191312
0.354842 0.404649 0.180453
0.311287 0.399566 0.199947
0.399932 0.420131 0.203645
0.319251 0.458360 0.225899
0.356890 0.399168 0.229389
0.318285 0.399924 0.254664
0.401895 0.397148 0.248740
0.308298 0.464265 0.288100
0.353443 0.399235 0.276528
0.300018 0.416929 0.299957
0.399839 0.435978 0.303117
0.329590 0.411363 0.330305
0.373324 0.399045 0.330585
0.301360 0.451238 0.399914
0.400546 0.449757 0.400095
0.326455 0.399458 0.373911
0.378793 0.399468 0.379653
0.290079 0.530565 0.021252
0.329680 0.502254 0.024149
0.289485 0.633753 0.020073
0.317253 0.585228 0.016519
0.290902 0.529171 0.072528
0.331980 0.503132 0.077038
0.287443 0.623311 0.069725
0.313149 0.580230 0.066992
0.295870 0.542662 0.121981
0.334189 0.493286 0.123446
0.294432 0.635448 0.118857
0.326867 0.579557 0.116222
0.293801 0.531705 0.174301
0.327106 0.475485 0.171972
0.290279 0.627770 0.168653
0.317951 0.573533 0.167290
0.335331 0.518507 0.213406
0.377664 0.494935 0.216865
0.302347 0.622331 0.215339
0.354890 0.583419 0.210939
0.338635 0.498294 0.263631
0.384526 0.483748 0.266662
0.303411 0.617806 0.265169
0.352405 0.566117 0.261233
0.333600 0.502823 0.332426
0.375616 0.484504 0.326487
0.309867 0.596550 0.305113
0.370717 0.583901 0.319330
0.326852 0.484913 0.375016
0.370769 0.439622 0.370526
0.322938 0.582101 0.367319
0.372546 0.546674 0.370304

CELL_TYPES 384
1
1
1
1
1
1
1
1
1
1
1
1
1
1
1
1
1
1
1
1
1
1
1
1
1
1
1
1
1
1
1
1
1
1
1
1
1
1
1
1
1
1
1
1
1
1
1
1
1
1
1
1
1
1
1
1
1
1
1
1
1
1
1
1
1
1
1
1
1
1
1
1
1
1
1
1
1
1
1
1
1
1
1
1
1
1
1
1
1
1
1
1
1
1
1
1
1
1
1
1
1
1
1
1
1
1
1
1
1
1
1
1
1
1
1
1
1
1
1
1
1
1
1
1
1
1
1
1
1
1
1
1
1
1
1
1
1
1
1
1
1
1
1
1
1
1
1
1
1
1
1
1
1
1
1
1
1
1
1
1
1
1
1
1
1
1
1
1
1
1
1
1
1
1
1
1
1
1
1
1
1
1
1
1
1
1
1
1
1
1
1
1
1
1
1
1
1
1
1
1
1
1
1
1
1
1
1
1
1
1
1
1
1
1
1
1
1
1
1
1
1
1
1
1
1
1
1
1
1
1
1
1
1
1
1
1
1
1
1
1
1
1
1
1
1
1
1
1
1
1
1
1
1
1
1
1
1
1
1
1
1
1
1
1
1
1
1
1
1
1
1
1
1
1
1
1
1
1
1
1
1
1
1
1
1
1
1
1
1
1
1
1
1
1
1
1
1
1
1
1
1
1
1
1
1
1
1
1
1
1
1
1
1
1
1
1
1
1
1
1
1
1
1
1
1
1
1
1
1
1
1
1
1
1
1
1
1
1
1
1
1
1
1
1
1
1
1
1
1
1
1
1
1
1
1
1
1
1
1
1
1
1
1
1
1
1
1
1
1
1
1
1
1
1
1
1
1
1
1
1
1
1
1
1

POINT_DATA 384
SCALARS radius float
LOOKUP_TABLE default
0.5
0.5
0.5
0.5
0.5
0.5
0.5
0.5
0.5
0.5
0.5
0.5
0.5
0.5
0.5
0.5
0.5
0.5
0.5
0.5
0.5
0.5
0.5
0.5
0.5
0.5
0.5
0.5
0.5
0.5
0.5
0.5
0.5
0.5
0.5
0.5
0.5
0.5
0.5
0.5
0.5
0.5
0.5
0.5
0.5
0.5
0.5
0.5
0.5
0.5
0.5
0.5
0.5
0.5
0.5
0.5
0.5
0.5
0.5
0.5
0.5
0.5
0.5
0.5
0.5
0.5
0.5
0.5
0.5
0.5
0.5
0.5
0.5
0.5
0.5
0.5
0.5
0.5
0.5
0.5
0.5
0.5
0.5
0.5
0.5
0.5
0.5
0.5
0.5
0.5
0.5
0.5
0.5
0.5
0.5
0.5
0.5
0.5
0.5
0.5
0.5
0.5
0.5
0.5
0.5
0.5
0.5
0.5
0.5
0.5
0.5
0.5
0.5
0.5
0.5
0.5
0.5
0.5
0.5
0.5
0.5
0.5
0.5
0.5
0.5
0.5
0.5
0.5
0.5
0.5
0.5
0.5
0.5
0.5
0.5
0.5
0.5
0.5
0.5
0.5
0.5
0.5
0.5
0.5
0.5
0.5
0.5
0.5
0.5
0.5
0.5
0.5
0.5
0.5
0.5
0.5
0.5
0.5
0.5
0.5
0.5
0.5
0.5
0.5
0.5
0.5
0.5
0.5
0.5
0.5
0.5
0.5
0.5
0.5
0.5
0.5
0.5
0.5
0.5
0.5
0.5
0.5
0.5
0.5
0.5
0.5
0.5
0.5
0.5
0.5
0.5
0.5
0.5
0.5
0.5
0.5
0.5
0.5
0.5
0.5
0.5
0.5
0.5
0.5
0.5
0.5
0.5
0.5
0.5
0.5
0.5
0.5
0.5
0.5
0.5
0.5
0.5
0.5
0.5
0.5
0.5
0.5
0.5
0.5
0.5
0.5
0.5
0.5
0.5
0.5
0.5
0.5
0.5
0.5
0.5
0.5
0.5
0.5
0.5
0.5
0.5
0.5
0.5
0.5
0.5
0.5
0.5
0.5
0.5
0.5
0.5
0.5
0.5
0.5
0.5
0.5
0.5
0.5
0.5
0.5
0.5
0.5
0.5
0.5
0.5
0.5
0.5
0.5
0.5
0.5
0.5
0.5
0.5
0.5
0.5
0.5
0.5
0.5
0.5
0.5
0.5
0.5
0.5
0.5
0.5
0.5
0.5
0.5
0.5
0.5
0.5
0.5
0.5
0.5
0.5
0.5
0.5
0.5
0.5
0.5
0.5
0.5
0.5
0.5
0.5
0.5
0.5
0.5
0.5
0.5
0.5
0.5
0.5
0.5
0.5
0.5
0.5
0.5
0.5
0.5
0.5
0.5
0.5
0.5
0.5
0.5
0.5
0.5
0.5
0.5
0.5
0.5
0.5
0.5
0.5
0.5
0.5
0.5
0.5
0.5
0.5
0.5
0.5
0.5
0.5
0.5
0.5
0.5
0.5
0.5
0.5
0.5
0.5
0.5
0.5
0.5
0.5
0.5
0.5
0.5
0.5
0.5
0.5
0.5
0.5
0.5
0.5
0.5
0.5
0.5
0.5
0.5
0.5
0.5
0.5
0.5
0.5
0.5
0.5
0.5
0.5
0.5
0.5
0.5
