# vtk DataFile Version 2.0
Title Data
ASCII
DATASET UNSTRUCTURED_GRID
POINTS 384 float
0.019855 0.363047 0.069012
0.034307 0.329810 0.096778
0.099649 0.332545 0.086284
0.100160 0.382023 0.123525
0.094910 0.339607 0.013224
0.051020 0.339972 0.040827
0.100006 0.393159 0.100135
0.039647 0.373787 0.008694
0.132017 0.297655 0.127367
0.085018 0.306919 0.052962
0.054572 0.298666 0.132062
0.048719 0.287353 0.148557
0.059380 0.299648 0.187546
0.011531 0.292775 0.179782
0.095535 0.345589 0.197164
0.047964 0.361428 0.185662
0.055588 0.333159 0.231126
0.007610 0.332443 0.226281
0.132856 0.396611 0.231848
0.011218 0.376351 0.212169
0.046788 0.353827 0.275006
0.099914 0.342609 0.279781
0.088430 0.351409 0.300580
0.059449 0.364753 0.319450
0.111200 0.355019 0.307682
0.020052 0.342635 0.326864
0.108813 0.361492 0.356396
0.065778 0.338187 0.357945
0.102678 0.344479 0.400032
0.034108 0.347782 0.394468
0.006301 0.396469 0.436235
0.063203 0.390791 0.448408
0.100480 0.325630 0.125250
0.101398 0.347294 0.048559
0.012152 0.440144 0.012149
0.064918 0.408466 0.005257
0.040857 0.395798 0.097271
0.099979 0.388628 0.010584
0.001997 0.399934 0.062107
0.047900 0.399786 0.049476
0.142627 0.363286 0.139618
0.070658 0.370203 0.151060
0.015437 0.418963 0.109646
0.059512 0.397031 0.111317
0.009287 0.320069 0.166020
0.103386 0.298622 0.168315
0.107879 0.381426 0.166328
0.025816 0.371630 0.143271
0.057549 0.381330 0.227199
0.099984 0.396632 0.199888
0.016277 0.418730 0.206999
0.063703 0.412778 0.199931
0.062388 0.399682 0.268133
0.095624 0.353405 0.242515
0.095237 0.399906 0.241050
0.018171 0.399879 0.252713
0.097480 0.399754 0.342825
0.091320 0.399887 0.298817
0.109209 0.394670 0.280167
0.031913 0.399811 0.298177
0.082767 0.366149 0.411702
0.042832 0.399346 0.405092
0.080920 0.399823 0.378443
0.027544 0.382890 0.362445
0.015732 0.525959 0.015768
0.065588 0.491479 0.013959
0.004896 0.597257 0.004889
0.053482 0.580590 0.000174
0.013903 0.491719 0.065628
0.065186 0.457745 0.065129
0.000103 0.580673 0.053323
0.050252 0.536625 0.050210
0.014353 0.523932 0.114290
0.064029 0.487519 0.114593
0.013029 0.595742 0.099797
0.062127 0.579159 0.099275
0.021814 0.473058 0.160689
0.069270 0.446074 0.159538
0.001165 0.584020 0.147270
0.051012 0.534832 0.146081
0.014372 0.529803 0.203270
0.067160 0.500729 0.202239
0.016238 0.591742 0.194735
0.062468 0.574473 0.190914
0.023665 0.475729 0.246134
0.071661 0.463116 0.242955
0.000543 0.576718 0.240289
0.051905 0.545834 0.238125
0.021220 0.463538 0.294532
0.073099 0.451506 0.293017
0.016717 0.583664 0.287049
0.064806 0.571786 0.284877
0.099976 0.399842 0.325216
0.056387 0.399866 0.335821
0.009309 0.519572 0.299942
0.056574 0.499531 0.299738
0.084253 0.399805 0.068448
0.189572 0.302539 0.069013
0.140188 0.298910 0.041348
0.188364 0.376617 0.100776
0.082774 0.298668 0.100106
0.178787 0.298520 0.025823
0.133352 0.288001 0.052219
0.194124 0.380915 0.029170
0.109280 0.297273 0.096049
0.162513 0.293465 0.094152
0.148503 0.299210 0.166758
0.189650 0.294830 0.136927
0.096986 0.297978 0.150350
0.179288 0.288105 0.184791
0.138319 0.350940 0.216262
0.199961 0.395832 0.194857
0.099106 0.314914 0.210039
0.182082 0.321962 0.200255
0.143638 0.314108 0.243686
0.181751 0.358512 0.241258
0.104318 0.304400 0.270585
0.182000 0.313012 0.272375
0.142848 0.323404 0.300767
0.200196 0.362274 0.302924
0.090616 0.309597 0.324556
0.181237 0.324782 0.331306
0.131861 0.319859 0.350226
0.202951 0.347571 0.371647
0.110938 0.398985 0.449132
0.156407 0.345155 0.387575
0.150433 0.392390 0.475106
0.191211 0.398495 0.449316
0.144849 0.315984 0.088205
0.164147 0.331282 0.004842
0.112705 0.435840 0.016409
0.156275 0.402779 0.100106
0.135438 0.387184 0.096967
0.166776 0.375940 0.067294
0.100852 0.399244 0.062584
0.140569 0.375426 0.033348
0.114862 0.420932 0.104495
0.166556 0.307012 0.128731
0.113943 0.486461 0.114139
0.161151 0.469140 0.116877
0.137101 0.333279 0.177157
0.180269 0.348828 0.166336
0.116714 0.469550 0.161589
0.159204 0.421139 0.161171
0.128821 0.411846 0.199989
0.167851 0.399081 0.211540
0.112758 0.458542 0.210131
0.165191 0.445176 0.206096
0.137964 0.359136 0.261970
0.176031 0.357246 0.289260
0.101424 0.426480 0.249246
0.163948 0.399782 0.261655
0.145041 0.385486 0.297594
0.155275 0.361645 0.342084
0.135770 0.430446 0.290522
0.199728 0.399840 0.300038
0.113835 0.399493 0.403010
0.156041 0.381197 0.421281
0.140538 0.399881 0.370642
0.183106 0.399723 0.386127
0.114233 0.529162 0.014611
0.160697 0.480576 0.021737
0.099907 0.596430 0.012861
0.147472 0.585256 0.001199
0.114217 0.492506 0.064590
0.158935 0.455726 0.068364
0.099311 0.579424 0.061990
0.145773 0.542915 0.050582
0.107562 0.569027 0.106937
0.160361 0.534088 0.110954
0.116164 0.619839 0.100004
0.150637 0.590113 0.091682
0.110934 0.534010 0.160245
0.159942 0.496169 0.159755
0.091630 0.589449 0.149498
0.151687 0.575113 0.151589
0.099868 0.546104 0.209356
0.158947 0.536733 0.198921
0.104306 0.599644 0.197143
0.156170 0.594983 0.197832
0.099990 0.505354 0.253524
0.154222 0.486380 0.248732
0.093170 0.583271 0.245608
0.136508 0.563873 0.237215
0.112167 0.482448 0.296892
0.173685 0.473142 0.294796
0.106104 0.595775 0.295186
0.152972 0.590923 0.279242
0.134833 0.399719 0.330237
0.176315 0.399923 0.325144
0.098996 0.534402 0.299703
0.141670 0.516400 0.285552
0.246653 0.295139 0.068042
0.274536 0.297903 0.035056
0.241235 0.360180 0.140347
0.295063 0.302615 0.073749
0.199970 0.305526 0.100225
0.298722 0.296032 0.100127
0.221794 0.298579 0.031739
0.323984 0.378013 0.055228
0.211633 0.298005 0.092448
0.268170 0.289339 0.100448
0.234798 0.287523 0.137372
0.305262 0.323541 0.148247
0.219657 0.298099 0.184057
0.264905 0.282833 0.180316
0.226004 0.344076 0.179141
0.304613 0.357795 0.198657
0.219837 0.323425 0.226684
0.279697 0.331339 0.220066
0.244994 0.357580 0.239513
0.288912 0.372372 0.238013
0.225638 0.331254 0.275559
0.274410 0.332417 0.270048
0.242094 0.372994 0.284211
0.299987 0.358645 0.301120
0.227249 0.335228 0.330010
0.271780 0.318672 0.318418
0.252169 0.333696 0.372442
0.300110 0.338377 0.362289
0.215912 0.356956 0.419188
0.250969 0.399176 0.419060
0.237681 0.398966 0.461116
0.286915 0.399558 0.463025
0.224546 0.331643 0.064553
0.264720 0.369281 0.065342
0.203463 0.407656 0.017547
0.254065 0.374958 0.102237
0.215896 0.379240 0.108174
0.243094 0.312108 0.102262
0.200140 0.404512 0.069286
0.242918 0.367957 0.023739
0.199863 0.398641 0.144582
0.268677 0.299677 0.137860
0.208343 0.453413 0.115129
0.254005 0.433462 0.107590
0.210926 0.304490 0.143576
0.267185 0.299748 0.180508
0.205745 0.450112 0.165067
0.269061 0.382370 0.165200
0.213436 0.386381 0.220922
0.254831 0.395004 0.205487
0.213861 0.432022 0.212538
0.262808 0.430965 0.199998
0.206683 0.396438 0.260587
0.285604 0.399933 0.267522
0.199959 0.429249 0.261973
0.248412 0.399651 0.248037
0.207608 0.389637 0.349768
0.263612 0.362733 0.333192
0.227370 0.399913 0.314753
0.271242 0.399810 0.304062
0.200248 0.399478 0.400223
0.265368 0.350998 0.417949
0.241309 0.377782 0.378149
0.295819 0.381039 0.361264
0.203260 0.527497 0.014390
0.245210 0.472449 0.023310
0.195072 0.592548 0.016451
0.240449 0.574731 0.000357
0.202399 0.499071 0.066787
0.240702 0.462833 0.071543
0.191688 0.579438 0.064909
0.238200 0.544086 0.051853
0.210085 0.543881 0.099957
0.252914 0.504002 0.099945
0.198668 0.597038 0.110635
0.245400 0.582699 0.093607
0.198131 0.539086 0.158506
0.250282 0.490195 0.151902
0.198070 0.595930 0.157708
0.237823 0.566212 0.138550
0.199978 0.508449 0.197759
0.251853 0.485699 0.201622
0.199884 0.594030 0.200884
0.250442 0.591391 0.197213
0.204077 0.485631 0.249620
0.262930 0.439285 0.263808
0.195523 0.588379 0.248907
0.210977 0.536453 0.211492
0.199371 0.446702 0.344317
0.258029 0.403626 0.348634
0.199873 0.580767 0.294699
0.189675 0.568418 0.334162
0.206580 0.403579 0.395186
0.282998 0.399945 0.393725
0.185459 0.530137 0.299651
0.191038 0.495118 0.368617
0.326984 0.353811 0.110010
0.398911 0.344018 0.097115
0.369588 0.378553 0.109086
0.439099 0.397956 0.007293
0.324188 0.339500 0.031039
0.389221 0.347108 0.035664
0.356005 0.346538 0.072064
0.451185 0.399367 0.063667
0.326481 0.309791 0.086026
0.444127 0.361938 0.095887
0.361841 0.326482 0.124641
0.465240 0.395530 0.143931
0.334897 0.319979 0.182636
0.387880 0.333260 0.163872
0.368670 0.347291 0.204744
0.454544 0.399095 0.191505
0.328808 0.329751 0.228716
0.416025 0.353830 0.219385
0.370632 0.335972 0.253748
0.471462 0.391964 0.237671
0.321405 0.316177 0.274651
0.408056 0.352788 0.281557
0.361287 0.344219 0.301164
0.462577 0.397048 0.286521
0.320343 0.319267 0.322546
0.431353 0.347498 0.325258
0.356345 0.324856 0.353855
0.432494 0.396558 0.345433
0.320824 0.347013 0.428709
0.387762 0.345367 0.389316
0.353548 0.395488 0.429131
0.417369 0.399028 0.389905
0.326936 0.399730 0.097424
0.407122 0.399917 0.083550
0.290804 0.399667 0.099768
0.365440 0.395240 0.066094
0.298645 0.357442 0.098765
0.400219 0.398781 0.034902
0.288585 0.375619 0.031362
0.358809 0.380094 0.019478
0.292009 0.347153 0.142351
0.420245 0.399178 0.127574
0.292261 0.423269 0.137630
0.378803 0.399821 0.147797
0.341971 0.359300 0.156875
0.420191 0.369174 0.165093
0.298841 0.398414 0.199795
0.381916 0.399889 0.183807
0.346788 0.389445 0.193169
0.411450 0.399515 0.199833
0.323174 0.399642 0.227272
0.367713 0.379329 0.236187
0.328326 0.361424 0.264331
0.428031 0.399903 0.246623
0.316736 0.399892 0.294154
0.358606 0.391142 0.300029
0.300232 0.399769 0.330607
0.417902 0.399042 0.300094
0.335428 0.364608 0.337171
0.387728 0.358556 0.342977
0.305414 0.398880 0.419272
0.401867 0.399020 0.434844
0.340510 0.357075 0.385981
0.408578 0.350611 0.400290
0.293439 0.459693 0.020880
0.319754 0.399905 0.008254
0.286890 0.582118 0.017375
0.299791 0.517566 0.008465
0.291439 0.448413 0.071669
0.328306 0.419255 0.061904
0.284864 0.570374 0.065822
0.299936 0.499002 0.056338
0.294719 0.487214 0.114886
0.336025 0.399962 0.135921
0.295651 0.595604 0.107139
0.299987 0.532548 0.099545
0.294148 0.475265 0.173077
0.310806 0.399857 0.170351
0.281051 0.591629 0.154801
0.286799 0.522792 0.145476
0.348833 0.443145 0.199344
0.398060 0.399737 0.218494
0.293779 0.572840 0.199898
0.301680 0.501551 0.185331
0.346096 0.399975 0.261101
0.391921 0.399981 0.272593
0.335319 0.563054 0.192578
0.380841 0.492699 0.196181
0.342549 0.405027 0.335533
0.388563 0.399784 0.329393
0.266657 0.545538 0.360121
0.351305 0.498309 0.351491
0.328993 0.399802 0.379739
0.372792 0.399765 0.373962
0.284526 0.507225 0.389177
0.384647 0.470916 0.385965

CELL_TYPES 384
1
1
1
1
1
1
1
1
1
1
1
1
1
1
1
1
1
1
1
1
1
1
1
1
1
1
1
1
1
1
1
1
1
1
1
1
1
1
1
1
1
1
1
1
1
1
1
1
1
1
1
1
1
1
1
1
1
1
1
1
1
1
1
1
1
1
1
1
1
1
1
1
1
1
1
1
1
1
1
1
1
1
1
1
1
1
1
1
1
1
1
1
1
1
1
1
1
1
1
1
1
1
1
1
1
1
1
1
1
1
1
1
1
1
1
1
1
1
1
1
1
1
1
1
1
1
1
1
1
1
1
1
1
1
1
1
1
1
1
1
1
1
1
1
1
1
1
1
1
1
1
1
1
1
1
1
1
1
1
1
1
1
1
1
1
1
1
1
1
1
1
1
1
1
1
1
1
1
1
1
1
1
1
1
1
1
1
1
1
1
1
1
1
1
1
1
1
1
1
1
1
1
1
1
1
1
1
1
1
1
1
1
1
1
1
1
1
1
1
1
1
1
1
1
1
1
1
1
1
1
1
1
1
1
1
1
1
1
1
1
1
1
1
1
1
1
1
1
1
1
1
1
1
1
1
1
1
1
1
1
1
1
1
1
1
1
1
1
1
1
1
1
1
1
1
1
1
1
1
1
1
1
1
1
1
1
1
1
1
1
1
1
1
1
1
1
1
1
1
1
1
1
1
1
1
1
1
1
1
1
1
1
1
1
1
1
1
1
1
1
1
1
1
1
1
1
1
1
1
1
1
1
1
1
1
1
1
1
1
1
1
1
1
1
1
1
1
1
1
1
1
1
1
1
1
1
1
1
1
1
1
1
1
1
1
1
1
1
1
1
1
1
1
1
1
1
1
1
1
1
1
1
1
1

POINT_DATA 384
SCALARS radius float
LOOKUP_TABLE default
0.5
0.5
0.5
0.5
0.5
0.5
0.5
0.5
0.5
0.5
0.5
0.5
0.5
0.5
0.5
0.5
0.5
0.5
0.5
0.5
0.5
0.5
0.5
0.5
0.5
0.5
0.5
0.5
0.5
0.5
0.5
0.5
0.5
0.5
0.5
0.5
0.5
0.5
0.5
0.5
0.5
0.5
0.5
0.5
0.5
0.5
0.5
0.5
0.5
0.5
0.5
0.5
0.5
0.5
0.5
0.5
0.5
0.5
0.5
0.5
0.5
0.5
0.5
0.5
0.5
0.5
0.5
0.5
0.5
0.5
0.5
0.5
0.5
0.5
0.5
0.5
0.5
0.5
0.5
0.5
0.5
0.5
0.5
0.5
0.5
0.5
0.5
0.5
0.5
0.5
0.5
0.5
0.5
0.5
0.5
0.5
0.5
0.5
0.5
0.5
0.5
0.5
0.5
0.5
0.5
0.5
0.5
0.5
0.5
0.5
0.5
0.5
0.5
0.5
0.5
0.5
0.5
0.5
0.5
0.5
0.5
0.5
0.5
0.5
0.5
0.5
0.5
0.5
0.5
0.5
0.5
0.5
0.5
0.5
0.5
0.5
0.5
0.5
0.5
0.5
0.5
0.5
0.5
0.5
0.5
0.5
0.5
0.5
0.5
0.5
0.5
0.5
0.5
0.5
0.5
0.5
0.5
0.5
0.5
0.5
0.5
0.5
0.5
0.5
0.5
0.5
0.5
0.5
0.5
0.5
0.5
0.5
0.5
0.5
0.5
0.5
0.5
0.5
0.5
0.5
0.5
0.5
0.5
0.5
0.5
0.5
0.5
0.5
0.5
0.5
0.5
0.5
0.5
0.5
0.5
0.5
0.5
0.5
0.5
0.5
0.5
0.5
0.5
0.5
0.5
0.5
0.5
0.5
0.5
0.5
0.5
0.5
0.5
0.5
0.5
0.5
0.5
0.5
0.5
0.5
0.5
0.5
0.5
0.5
0.5
0.5
0.5
0.5
0.5
0.5
0.5
0.5
0.5
0.5
0.5
0.5
0.5
0.5
0.5
0.5
0.5
0.5
0.5
0.5
0.5
0.5
0.5
0.5
0.5
0.5
0.5
0.5
0.5
0.5
0.5
0.5
0.5
0.5
0.5
0.5
0.5
0.5
0.5
0.5
0.5
0.5
0.5
0.5
0.5
0.5
0.5
0.5
0.5
0.5
0.5
0.5
0.5
0.5
0.5
0.5
0.5
0.5
0.5
0.5
0.5
0.5
0.5
0.5
0.5
0.5
0.5
0.5
0.5
0.5
0.5
0.5
0.5
0.5
0.5
0.5
0.5
0.5
0.5
0.5
0.5
0.5
0.5
0.5
0.5
0.5
0.5
0.5
0.5
0.5
0.5
0.5
0.5
0.5
0.5
0.5
0.5
0.5
0.5
0.5
0.5
0.5
0.5
0.5
0.5
0.5
0.5
0.5
0.5
0.5
0.5
0.5
0.5
0.5
0.5
0.5
0.5
0.5
0.5
0.5
0.5
0.5
0.5
0.5
0.5
0.5
0.5
0.5
0.5
0.5
0.5
0.5
0.5
0.5
0.5
0.5
0.5
0.5
0.5
0.5
0.5
0.5
0.5
0.5
0.5
0.5
0.5
0.5
0.5
0.5
0.5
0.5
0.5
0.5
0.5
0.5
0.5
0.5
0.5
0.5
